/*--------------------------------*- C++ -*----------------------------------*\
  =========                 |
  \\      /  F ield         | OpenFOAM: The Open Source CFD Toolbox
   \\    /   O peration     | Website:  https://openfoam.org
    \\  /    A nd           | Version:  6
     \\/     M anipulation  |
\*---------------------------------------------------------------------------*/
FoamFile
{
    version     2.0;
    format      ascii;
    class       volScalarField;
    location    "3600";
    object      k;
}
// * * * * * * * * * * * * * * * * * * * * * * * * * * * * * * * * * * * * * //

dimensions      [0 2 -2 0 0 0 0];

internalField   nonuniform List<scalar> 
209825
(
0.0010240336
0.00093194602
0.00085697963
0.00079359022
0.00074068119
0.0006944981
0.00065534752
0.00062025587
0.00059023915
0.00056269942
0.00053904297
0.00051687013
0.00049781262
0.00047958745
0.00046395802
0.00044871999
0.00043571071
0.00042278722
0.00041182292
0.00040072933
0.00039138968
0.00038176816
0.00037373897
0.00036531967
0.00035836152
0.00035093715
0.00034486447
0.0003382732
0.00033293997
0.00032705361
0.00032234345
0.00031705915
0.0003128782
0.00030811242
0.00030438418
0.00030006839
0.00029672993
0.00029280733
0.00028980645
0.00028622954
0.00028352259
0.00028025134
0.0002778016
0.00027480196
0.00027257832
0.00026982119
0.00026779714
0.00026525742
0.00026341031
0.00026106624
0.00025937654
0.00025720915
0.00025566002
0.00025365266
0.00025222949
0.00025036747
0.00024905758
0.00024732787
0.00024612018
0.00024451118
0.00024339602
0.00024189732
0.0002408662
0.00023946846
0.00023851395
0.00023720869
0.00023632427
0.0002351038
0.00023428375
0.00023314105
0.00023238036
0.00023130895
0.00023061245
0.00022962206
0.00022896314
0.0002279895
0.00022735152
0.00022639283
0.0002257766
0.00022483065
0.00022423755
0.00022330159
0.00022273362
0.00022180433
0.00022126412
0.00022033784
0.00021982807
0.00021890226
0.00021842315
0.00021750116
0.00021704526
0.00021610541
0.00021566818
0.00022078862
0.00021955728
0.0045981545
0.0010240333
0.0009319463
0.00085697936
0.00079359053
0.00074068088
0.00069449844
0.00065534718
0.00062025623
0.00059023879
0.0005626998
0.0005390426
0.00051687052
0.00049781223
0.00047958784
0.00046395764
0.00044872039
0.00043571032
0.00042278761
0.00041182254
0.00040072972
0.00039138931
0.00038176853
0.00037373862
0.00036532002
0.00035836119
0.00035093748
0.00034486416
0.0003382735
0.00033293969
0.00032705388
0.00032234321
0.00031705938
0.00031287799
0.00030811262
0.00030438401
0.00030006855
0.00029672979
0.00029280745
0.00028980635
0.00028622963
0.00028352253
0.00028025138
0.00027780157
0.00027480197
0.00027257833
0.00026982117
0.00026779718
0.00026525738
0.00026341037
0.00026106617
0.00025937662
0.00025720906
0.00025566011
0.00025365256
0.0002522296
0.00025036738
0.00024905768
0.00024732779
0.00024612026
0.00024451113
0.00024339605
0.00024189731
0.00024086618
0.00023946851
0.00023851385
0.00023720884
0.00023632407
0.00023510407
0.00023428342
0.00023314147
0.00023237984
0.00023130958
0.00023061172
0.00022962293
0.0002289621
0.00022799075
0.00022735003
0.00022639459
0.00022577451
0.00022483311
0.00022423465
0.00022330499
0.00022272967
0.00022180886
0.00022125903
0.00022034338
0.00021982239
0.00021890749
0.00021841938
0.00021750227
0.00021704694
0.00021602402
0.00021604507
0.00022084856
0.00022047308
0.0027977508
0.0010240329
0.00093194687
0.0008569788
0.00079359117
0.00074068025
0.00069449914
0.00065534649
0.00062025698
0.00059023805
0.00056270059
0.00053904183
0.00051687133
0.00049781144
0.00047958866
0.00046395683
0.00044872121
0.00043570952
0.00042278842
0.00041182175
0.00040073051
0.00039138855
0.00038176929
0.00037373789
0.00036532074
0.00035836051
0.00035093815
0.00034486353
0.00033827412
0.00033293911
0.00032705444
0.0003223427
0.00031705987
0.00031287755
0.00030811303
0.00030438364
0.00030006889
0.0002967295
0.00029280772
0.00028980614
0.00028622981
0.0002835224
0.00028025149
0.00027780151
0.00027480201
0.00027257833
0.00026982114
0.00026779725
0.00026525729
0.00026341049
0.00026106603
0.00025937679
0.00025720889
0.00025566031
0.00025365237
0.0002522298
0.00025036718
0.00024905787
0.00024732761
0.00024612042
0.000244511
0.00024339616
0.00024189726
0.00024086619
0.00023946858
0.00023851371
0.00023720907
0.00023632374
0.00023510453
0.00023428283
0.00023314223
0.00023237892
0.0002313107
0.00023061041
0.0002296245
0.00022896021
0.00022799301
0.00022734734
0.00022639779
0.00022577071
0.00022483761
0.00022422934
0.00022331123
0.00022272237
0.00022181735
0.00022124928
0.00022035435
0.00021981047
0.00021891962
0.00021840867
0.00021750852
0.00021704923
0.00021601848
0.00021612062
0.00022079988
0.00022052149
0.0013750133
0.0010240321
0.00093194775
0.00085697793
0.00079359215
0.00074067927
0.00069450021
0.00065534543
0.00062025812
0.00059023692
0.00056270179
0.00053904065
0.00051687257
0.00049781022
0.00047958993
0.0004639556
0.00044872248
0.00043570829
0.00042278968
0.00041182054
0.00040073174
0.00039138737
0.00038177047
0.00037373676
0.00036532186
0.00035835944
0.0003509392
0.00034486254
0.00033827508
0.00033293821
0.00032705531
0.0003223419
0.00031706064
0.00031287685
0.00030811369
0.00030438305
0.00030006944
0.00029672903
0.00029280815
0.00028980578
0.00028623012
0.00028352216
0.00028025169
0.00027780138
0.0002748021
0.00027257831
0.00026982112
0.00026779733
0.00026525718
0.00026341065
0.00026106585
0.00025937702
0.00025720864
0.00025566059
0.00025365208
0.00025223011
0.00025036688
0.00024905818
0.00024732733
0.0002461207
0.00024451077
0.00024339636
0.00024189713
0.00024086626
0.0002394686
0.00023851361
0.0002372093
0.00023632339
0.00023510504
0.00023428216
0.0002331431
0.00023237783
0.00023131205
0.00023060884
0.0002296264
0.0002289579
0.00022799577
0.00022734403
0.00022640173
0.00022576603
0.00022484317
0.00022422276
0.00022331903
0.00022271316
0.00022182823
0.00022123646
0.00022036943
0.00021979284
0.00021893995
0.00021838617
0.00021753009
0.0002170418
0.00021607589
0.00021590871
0.00022006138
0.00021993114
0.00066474852
0.0010240311
0.00093194894
0.00085697675
0.0007935935
0.00074067795
0.00069450168
0.00065534397
0.00062025969
0.00059023537
0.00056270343
0.00053903902
0.00051687427
0.00049780855
0.00047959166
0.00046395391
0.00044872421
0.0004357066
0.0004227914
0.00041181887
0.00040073342
0.00039138574
0.0003817721
0.0003737352
0.00036532342
0.00035835797
0.00035094066
0.00034486116
0.00033827643
0.00033293695
0.00032705654
0.00032234076
0.00031706173
0.00031287585
0.00030811464
0.00030438221
0.00030007023
0.00029672834
0.00029280878
0.00028980524
0.00028623061
0.00028352177
0.00028025202
0.00027780115
0.00027480228
0.00027257822
0.00026982116
0.00026779737
0.00026525709
0.00026341082
0.00026106565
0.00025937729
0.00025720835
0.00025566094
0.00025365172
0.00025223051
0.00025036648
0.00024905861
0.00024732693
0.00024612111
0.0002445104
0.0002433967
0.00024189685
0.0002408665
0.00023946846
0.00023851367
0.00023720937
0.00023632321
0.00023510539
0.00023428165
0.00023314382
0.00023237691
0.00023131323
0.00023060743
0.00022962813
0.00022895579
0.00022799833
0.00022734095
0.00022640543
0.00022576162
0.00022484843
0.0002242165
0.00022332648
0.00022270428
0.00022183889
0.0002212236
0.00022038517
0.00021977324
0.00021896517
0.00021835213
0.00021757989
0.00021695854
0.00021624594
0.00021556511
0.00021790277
0.00021838533
0.00038035054
0.0010240298
0.00093195047
0.00085697524
0.00079359521
0.00074067625
0.00069450356
0.00065534212
0.0006202617
0.00059023339
0.00056270554
0.00053903694
0.00051687645
0.00049780641
0.00047959388
0.00046395173
0.00044872645
0.00043570441
0.00042279362
0.00041181671
0.0004007356
0.00039138364
0.00038177421
0.00037373317
0.00036532544
0.00035835604
0.00035094257
0.00034485935
0.00033827821
0.00033293528
0.00032705816
0.00032233925
0.00031706319
0.00031287452
0.00030811592
0.00030438105
0.00030007132
0.00029672737
0.00029280968
0.00028980447
0.00028623131
0.00028352119
0.00028025253
0.00027780076
0.0002748026
0.00027257801
0.0002698213
0.00026779734
0.00026525707
0.00026341094
0.00026106547
0.00025937755
0.00025720805
0.00025566132
0.00025365131
0.00025223099
0.00025036599
0.00024905914
0.0002473264
0.00024612166
0.00024450987
0.00024339723
0.00024189636
0.00024086696
0.00023946807
0.00023851402
0.00023720912
0.00023632338
0.00023510536
0.00023428158
0.00023314406
0.00023237652
0.00023131383
0.00023060666
0.00022962914
0.0002289545
0.00022799994
0.00022733897
0.00022640785
0.00022575871
0.00022485195
0.00022421231
0.00022333152
0.00022269825
0.00022184618
0.00022121473
0.00022039621
0.00021975915
0.00021898393
0.00021832575
0.00021761982
0.0002168928
0.00021636241
0.0002153136
0.00021604704
0.0002167117
0.00027169083
0.0010240283
0.00093195235
0.00085697339
0.00079359732
0.00074067416
0.00069450586
0.00065533984
0.00062026416
0.00059023095
0.00056270813
0.00053903439
0.00051687913
0.00049780377
0.00047959662
0.00046394904
0.00044872921
0.00043570172
0.00042279638
0.00041181403
0.00040073831
0.00039138101
0.00038177685
0.00037373064
0.00036532797
0.00035835361
0.00035094498
0.00034485707
0.00033828046
0.00033293316
0.00032706024
0.00032233731
0.00031706507
0.00031287277
0.0003081176
0.00030437952
0.00030007278
0.00029672606
0.00029281092
0.00028980338
0.00028623231
0.00028352034
0.0002802533
0.00027780013
0.00027480315
0.00027257761
0.00026982163
0.00026779715
0.00026525719
0.00026341095
0.0002610654
0.00025937774
0.0002572078
0.00025566168
0.00025365091
0.00025223148
0.00025036547
0.00024905974
0.00024732578
0.00024612234
0.00024450919
0.00024339797
0.00024189564
0.00024086771
0.00023946735
0.00023851474
0.00023720845
0.00023632403
0.00023510477
0.00023428213
0.0002331436
0.00023237694
0.00023131351
0.0002306069
0.00022962901
0.00022895456
0.00022800003
0.00022733878
0.0002264082
0.00022575823
0.00022485261
0.0002242115
0.00022333254
0.00022269706
0.00022184758
0.00022121314
0.000220398
0.0002197573
0.00021898561
0.0002183252
0.00021761652
0.00021690873
0.0002163047
0.0002155105
0.00021509469
0.0002153638
0.00022994679
0.0010240264
0.00093195458
0.00085697119
0.00079359982
0.00074067168
0.0006945086
0.00065533712
0.0006202671
0.00059022804
0.00056271123
0.00053903133
0.00051688234
0.00049780061
0.0004795999
0.00046394582
0.00044873253
0.00043569847
0.00042279969
0.0004118108
0.00040074159
0.00039137784
0.00038178005
0.00037372755
0.00036533106
0.00035835064
0.00035094793
0.00034485425
0.00033828324
0.00033293052
0.00032706283
0.00032233487
0.00031706745
0.00031287055
0.00030811974
0.00030437753
0.00030007468
0.00029672433
0.00029281256
0.00028980191
0.0002862337
0.00028351912
0.00028025443
0.00027779918
0.00027480401
0.00027257692
0.00026982223
0.0002677967
0.00026525754
0.00026341075
0.00026106552
0.00025937777
0.00025720769
0.00025566192
0.0002536506
0.00025223191
0.00025036497
0.00024906035
0.00024732512
0.00024612311
0.00024450838
0.00024339887
0.00024189471
0.00024086872
0.00023946632
0.00023851585
0.00023720732
0.00023632523
0.00023510355
0.00023428341
0.0002331423
0.0002323783
0.00023131213
0.00023060833
0.00022962752
0.00022895618
0.0002279983
0.0002273407
0.00022640612
0.00022576058
0.00022484998
0.00022421455
0.000223329
0.00022270131
0.00022184245
0.00022121957
0.00022038978
0.00021976827
0.00021897037
0.00021834759
0.00021758174
0.00021696586
0.00021620679
0.00021567969
0.00021476632
0.00021478841
0.00021374455
0.0010240242
0.00093195717
0.00085696864
0.00079360274
0.00074066879
0.00069451179
0.00065533395
0.00062027053
0.00059022465
0.00056271484
0.00053902776
0.0005168861
0.00049779691
0.00047960375
0.00046394203
0.00044873643
0.00043569464
0.0004228036
0.00041180698
0.00040074546
0.00039137406
0.00038178385
0.00037372386
0.00036533476
0.00035834708
0.00035095148
0.00034485084
0.00033828662
0.0003329273
0.000327066
0.00032233186
0.0003170704
0.00031286778
0.00030812244
0.00030437502
0.00030007712
0.00029672208
0.00029281472
0.00028979994
0.00028623557
0.00028351744
0.00028025601
0.00027779779
0.00027480529
0.00027257582
0.00026982323
0.00026779589
0.00026525825
0.00026341022
0.00026106595
0.00025937751
0.00025720786
0.00025566192
0.0002536505
0.00025223218
0.00025036463
0.00024906086
0.00024732453
0.00024612385
0.00024450756
0.00024339984
0.00024189366
0.00024086992
0.00023946504
0.00023851728
0.00023720581
0.00023632691
0.00023510179
0.00023428535
0.00023314025
0.00023238055
0.00023130975
0.00023061087
0.00022962477
0.00022895927
0.00022799492
0.00022734452
0.00022640187
0.00022576544
0.00022484449
0.00022422089
0.0002233217
0.00022270989
0.00022183235
0.00022123173
0.00022037503
0.00021978654
0.00021894746
0.00021837673
0.00021754483
0.00021701101
0.00021615806
0.00021571286
0.00021476297
0.00021457655
0.00021221442
0.0010240217
0.00093196014
0.00085696571
0.00079360607
0.00074066549
0.00069451545
0.00065533032
0.00062027445
0.00059022075
0.00056271899
0.00053902365
0.00051689042
0.00049779264
0.00047960819
0.00046393766
0.00044874095
0.00043569021
0.00042280814
0.00041180254
0.00040074998
0.00039136966
0.00038178831
0.00037371953
0.00036533911
0.00035834287
0.00035095569
0.00034484679
0.00033829065
0.00033292343
0.00032706983
0.00032232821
0.00031707399
0.00031286437
0.00030812578
0.00030437187
0.00030008018
0.00029671921
0.00029281749
0.00028979737
0.00028623804
0.00028351518
0.00028025816
0.00027779583
0.00027480714
0.00027257418
0.00026982475
0.00026779457
0.00026525946
0.00026340922
0.00026106684
0.00025937683
0.00025720843
0.00025566155
0.00025365077
0.00025223211
0.00025036458
0.0002490611
0.00024732418
0.0002461244
0.00024450689
0.0002434007
0.00024189267
0.00024087112
0.00023946371
0.00023851883
0.00023720412
0.00023632883
0.0002350997
0.00023428769
0.00023313771
0.00023238336
0.00023130671
0.00023061414
0.0002296212
0.00022896332
0.00022799045
0.00022734958
0.00022639625
0.00022577182
0.00022483734
0.00022422905
0.00022331246
0.00022272048
0.00022182026
0.00022124567
0.00022035903
0.00021980495
0.00021892658
0.0002183999
0.00021752062
0.00021703329
0.00021614388
0.00021570913
0.00021477683
0.00021453894
0.00021479761
0.0010240189
0.00093196348
0.00085696241
0.00079360983
0.00074066176
0.00069451957
0.00065532622
0.00062027889
0.00059021634
0.00056272369
0.00053901899
0.00051689532
0.00049778779
0.00047961325
0.00046393267
0.0004487461
0.00043568514
0.00042281334
0.00041179744
0.00040075518
0.00039136457
0.00038179346
0.00037371451
0.00036534417
0.00035833795
0.00035096062
0.00034484201
0.00033829542
0.00033291884
0.00032707439
0.00032232383
0.00031707833
0.00031286023
0.00030812986
0.00030436799
0.00030008398
0.00029671562
0.000292821
0.00028979408
0.00028624123
0.0002835122
0.00028026104
0.00027779318
0.00027480968
0.00027257186
0.00026982696
0.00026779259
0.00026526132
0.00026340758
0.00026106836
0.00025937553
0.0002572096
0.0002556606
0.00025365158
0.00025223151
0.00025036504
0.00024906086
0.00024732427
0.00024612454
0.00024450661
0.00024340122
0.000241892
0.00024087204
0.00023946262
0.00023852018
0.00023720258
0.00023633065
0.00023509767
0.00023429002
0.00023313516
0.00023238624
0.00023130357
0.00023061755
0.00022961745
0.00022896757
0.00022798577
0.00022735486
0.00022639041
0.00022577838
0.00022483008
0.00022423718
0.00022330348
0.00022273049
0.00022180925
0.00022125777
0.00022034599
0.00021981881
0.00021891246
0.00021841352
0.00021750897
0.00021704123
0.0002161414
0.00021570568
0.00021478358
0.0002145346
0.00021582887
0.0010240158
0.0009319672
0.00085695874
0.00079361402
0.0007406576
0.00069452417
0.00065532165
0.00062028385
0.00059021141
0.00056272894
0.00053901377
0.00051690082
0.00049778234
0.00047961893
0.00046392705
0.00044875191
0.00043567941
0.00042281923
0.00041179165
0.00040076109
0.00039135877
0.00038179935
0.00037370875
0.00036534999
0.00035833227
0.00035096633
0.00034483646
0.00033830098
0.00033291345
0.00032707977
0.00032231864
0.00031708348
0.00031285526
0.00030813477
0.00030436328
0.00030008863
0.00029671119
0.00029282535
0.00028978994
0.00028624528
0.00028350838
0.00028026476
0.00027778968
0.00027481307
0.0002725687
0.00026983001
0.00026778978
0.00026526402
0.00026340512
0.00026107069
0.00025937343
0.00025721157
0.00025565887
0.00025365318
0.00025223017
0.00025036625
0.00024905991
0.00024732508
0.00024612398
0.00024450701
0.00024340109
0.00024189197
0.00024087234
0.00023946213
0.00023852094
0.00023720162
0.0002363319
0.00023509621
0.00023429179
0.00023313316
0.00023238857
0.000231301
0.00023062039
0.00022961433
0.00022897114
0.00022798185
0.00022735928
0.00022638558
0.00022578376
0.00022482424
0.00022424361
0.00022329659
0.00022273792
0.00022180146
0.00022126591
0.00022033783
0.00021982677
0.00021890525
0.0002184195
0.00021750488
0.00021704319
0.00021614133
0.00021570465
0.00021479139
0.00021452603
0.00021761041
0.0010240124
0.00093197129
0.0008569547
0.00079361863
0.00074065302
0.00069452925
0.0006553166
0.00062028933
0.00059020596
0.00056273476
0.00053900799
0.00051690691
0.00049777629
0.00047962525
0.00046392079
0.00044875839
0.000435673
0.00042282582
0.00041178514
0.00040076774
0.00039135223
0.00038180601
0.00037370221
0.00036535661
0.0003583258
0.00035097286
0.00034483008
0.00033830739
0.0003329072
0.00032708602
0.00032231257
0.00031708954
0.0003128494
0.00030814061
0.00030435765
0.00030009421
0.00029670581
0.00029283067
0.00028978484
0.00028625031
0.00028350357
0.00028026948
0.00027778519
0.00027481746
0.00027256454
0.00026983406
0.00026778596
0.00026526773
0.00026340165
0.00026107404
0.00025937033
0.00025721455
0.00025565614
0.00025365578
0.00025222781
0.00025036846
0.00024905795
0.00024732689
0.00024612243
0.00024450841
0.00024339996
0.00024189294
0.00024087164
0.00023946266
0.00023852069
0.0002372017
0.0002363321
0.00023509583
0.00023429246
0.00023313231
0.0002323897
0.00023129968
0.00023062194
0.00022961259
0.0002289732
0.00022797959
0.00022736188
0.00022638278
0.00022578688
0.00022482095
0.00022424715
0.00022329295
0.00022274169
0.00022179778
0.00022126947
0.00022033466
0.00021982946
0.00021890334
0.00021842062
0.0002175046
0.00021704301
0.00021614156
0.00021570459
0.00021480306
0.00021451016
0.00022097105
0.0010240087
0.00093197575
0.00085695029
0.00079362367
0.00074064801
0.00069453479
0.00065531107
0.00062029532
0.00059019999
0.00056274113
0.00053900164
0.00051691361
0.00049776963
0.00047963221
0.00046391388
0.00044876556
0.0004356659
0.00042283313
0.00041177792
0.00040077515
0.00039134492
0.00038181345
0.00037369488
0.00036536405
0.00035831848
0.00035098026
0.00034482282
0.0003383147
0.00033290005
0.0003270932
0.00032230555
0.00031709657
0.00031284255
0.00030814745
0.000304351
0.00030010084
0.00029669938
0.00029283705
0.00028977866
0.00028625643
0.00028349767
0.00028027532
0.00027777958
0.000274823
0.00027255922
0.00026983929
0.00026778096
0.00026527262
0.00026339699
0.0002610786
0.00025936601
0.00025721876
0.00025565218
0.00025365962
0.00025222421
0.00025037194
0.00024905472
0.00024732999
0.00024611958
0.00024451112
0.00024339749
0.00024189527
0.00024086957
0.00023946461
0.000238519
0.00023720325
0.00023633079
0.00023509701
0.0002342915
0.00023313314
0.00023238908
0.0002313002
0.00023062163
0.00022961285
0.00022897312
0.00022797963
0.00022736198
0.00022638268
0.00022578707
0.00022482082
0.00022424728
0.000223293
0.00022274152
0.00022179826
0.00022126872
0.00022033587
0.00021982788
0.00021890538
0.00021841836
0.00021750693
0.00021704112
0.00021614262
0.00021570479
0.00021481741
0.00021448986
0.00021790588
0.0010240046
0.00093198057
0.00085694553
0.00079362911
0.0007406426
0.00069454079
0.00065530509
0.00062030181
0.00059019352
0.00056274805
0.00053899474
0.0005169209
0.00049776237
0.0004796398
0.00046390633
0.00044877339
0.00043565812
0.00042284116
0.00041176996
0.00040078331
0.00039133684
0.00038182171
0.00037368673
0.00036537235
0.0003583103
0.00035098855
0.00034481466
0.00033832294
0.00033289194
0.00032710137
0.00032229753
0.00031710462
0.00031283466
0.00030815535
0.00030434326
0.00030010857
0.00029669183
0.00029284458
0.00028977132
0.00028626374
0.00028349055
0.00028028238
0.00027777271
0.00027482981
0.00027255263
0.00026984582
0.00026777465
0.00026527886
0.00026339097
0.00026108453
0.0002593603
0.00025722438
0.00025564678
0.00025366492
0.00025221914
0.00025037691
0.00024904998
0.00024733463
0.00024611517
0.00024451544
0.0002433934
0.00024189926
0.00024086579
0.00023946829
0.00023851552
0.00023720665
0.00023632759
0.00023510015
0.00023428855
0.00023313606
0.00023238632
0.00023130294
0.00023061909
0.00022961546
0.00022897054
0.00022798232
0.00022735929
0.00022638554
0.00022578414
0.00022482398
0.00022424397
0.00022329662
0.00022273766
0.00022180251
0.00022126417
0.00022034082
0.00021982266
0.0002189109
0.00021841278
0.0002175125
0.00021703592
0.00021614716
0.0002157017
0.00021483265
0.00021446938
0.00021594629
0.0010240003
0.00093198573
0.00085694043
0.00079363494
0.0007406368
0.00069454723
0.00065529867
0.00062030878
0.00059018655
0.0005627555
0.00053898731
0.00051692876
0.00049775453
0.00047964801
0.00046389816
0.00044878189
0.00043564967
0.00042284989
0.00041176128
0.00040079223
0.00039132799
0.00038183076
0.00037367776
0.00036538149
0.00035830126
0.00035099774
0.00034480559
0.00033833214
0.00033288287
0.00032711054
0.0003222885
0.00031711372
0.0003128257
0.00030816436
0.00030433441
0.00030011746
0.00029668311
0.00029285332
0.00028976276
0.00028627231
0.00028348217
0.00028029076
0.00027776452
0.00027483798
0.00027254466
0.00026985376
0.00026776691
0.00026528656
0.00026338347
0.00026109198
0.00025935306
0.00025723156
0.0002556398
0.00025367184
0.00025221243
0.00025038356
0.00024904353
0.00024734102
0.00024610898
0.00024452156
0.00024338747
0.00024190514
0.00024086009
0.00023947395
0.00023851003
0.00023721211
0.00023632227
0.00023510545
0.00023428337
0.00023314125
0.00023238123
0.00023130807
0.00023061416
0.00022962055
0.00022896538
0.00022798769
0.00022735379
0.00022639129
0.00022577822
0.00022483023
0.0002242375
0.00022330346
0.00022273054
0.00022181002
0.00022125636
0.00022034903
0.00021981418
0.00021891975
0.00021840366
0.00021752203
0.00021702591
0.00021615815
0.00021568871
0.00021485044
0.00021445054
0.00021525817
0.0010239957
0.00093199121
0.000856935
0.00079364114
0.00074063062
0.00069455408
0.00065529183
0.00062031621
0.00059017913
0.00056276345
0.00053897937
0.00051693716
0.00049774615
0.0004796568
0.00046388939
0.00044879102
0.00043564057
0.0004228593
0.00041175191
0.00040080187
0.00039131841
0.00038184059
0.000373668
0.00036539146
0.00035829137
0.00035100781
0.00034479561
0.00033834227
0.00033287285
0.00032712069
0.00032227846
0.00031712387
0.00031281568
0.00030817447
0.00030432443
0.0003001275
0.0002966732
0.00029286328
0.00028975294
0.00028628216
0.00028347247
0.00028030048
0.00027775497
0.00027484754
0.00027253526
0.00026986316
0.00026775768
0.00026529578
0.00026337443
0.00026110101
0.00025934421
0.00025724039
0.00025563115
0.00025368047
0.00025220398
0.00025039198
0.00024903528
0.00024734924
0.00024610092
0.0002445296
0.00024337959
0.00024191301
0.00024085237
0.00023948167
0.00023850244
0.00023721972
0.00023631478
0.00023511298
0.00023427594
0.00023314872
0.00023237383
0.00023131553
0.00023060695
0.00022962799
0.00022895779
0.00022799554
0.00022734577
0.00022639962
0.00022576967
0.00022483911
0.00022422836
0.00022331297
0.00022272076
0.0002218202
0.0002212459
0.0002203599
0.00021980298
0.00021893142
0.00021839157
0.00021753476
0.00021701247
0.00021617264
0.00021567296
0.00021486737
0.00021443229
0.00021488377
0.0010239909
0.00093199699
0.00085692929
0.00079364767
0.00074062412
0.0006945613
0.00065528462
0.00062032406
0.00059017128
0.00056277185
0.00053897096
0.00051694605
0.00049773726
0.00047966613
0.00046388007
0.00044880073
0.00043563088
0.00042286934
0.00041174191
0.00040081219
0.00039130813
0.00038185114
0.0003736575
0.0003654022
0.00035828069
0.0003510187
0.00034478479
0.00033835328
0.00033286192
0.00032713179
0.00032226746
0.00031713502
0.00031280463
0.00030818565
0.00030431336
0.00030013868
0.00029666214
0.00029287443
0.00028974192
0.00028629326
0.0002834615
0.00028031152
0.00027774407
0.00027485849
0.00027252445
0.00026987401
0.00026774698
0.00026530651
0.00026336384
0.00026111162
0.00025933375
0.00025725087
0.00025562083
0.00025369081
0.0002521938
0.00025040218
0.00024902523
0.00024735931
0.000246091
0.00024453955
0.00024336977
0.00024192285
0.00024084265
0.00023949141
0.00023849281
0.00023722939
0.00023630521
0.00023512259
0.00023426641
0.00023315831
0.00023236433
0.0002313251
0.0002305977
0.0002296375
0.00022894812
0.0002280055
0.00022733562
0.00022641008
0.000225759
0.00022485011
0.00022421713
0.00022332454
0.00022270894
0.00022183238
0.00022123345
0.00022037274
0.00021978984
0.00021894501
0.00021837761
0.00021754926
0.00021699752
0.00021618814
0.00021565703
0.0002148835
0.00021441428
0.0002145728
0.0010239859
0.00093200303
0.00085692332
0.0007936545
0.00074061732
0.00069456885
0.00065527707
0.00062033226
0.00059016307
0.00056278064
0.00053896216
0.00051695538
0.00049772792
0.00047967593
0.00046387027
0.00044881095
0.00043562067
0.00042287993
0.00041173133
0.0004008231
0.00039129724
0.00038186233
0.00037364634
0.00036541363
0.00035826929
0.00035103034
0.00034477319
0.00033836509
0.00033285016
0.00032714374
0.00032225557
0.00031714709
0.00031279263
0.0003081978
0.00030430129
0.00030015089
0.00029665002
0.00029288668
0.00028972976
0.00028630553
0.00028344933
0.00028032378
0.00027773191
0.00027487074
0.00027251232
0.00026988621
0.00026773489
0.00026531867
0.00026335181
0.00026112371
0.00025932178
0.00025726289
0.00025560893
0.00025370275
0.00025218197
0.00025041405
0.00024901348
0.0002473711
0.00024607933
0.00024455126
0.00024335818
0.00024193448
0.00024083113
0.00023950298
0.00023848135
0.00023724089
0.00023629382
0.00023513403
0.00023425507
0.00023316969
0.00023235304
0.00023133643
0.00023058677
0.00022964869
0.00022893677
0.00022801712
0.00022732382
0.00022642216
0.00022574674
0.00022486266
0.0002242044
0.00022333758
0.00022269572
0.00022184591
0.00022121973
0.00022038678
0.00021977558
0.00021895959
0.00021836281
0.00021756437
0.00021698224
0.00021620363
0.00021564145
0.00021489915
0.00021439659
0.00021448552
0.0010239807
0.00093200928
0.00085691713
0.00079366157
0.00074061027
0.00069457667
0.00065526925
0.00062034077
0.00059015456
0.00056278977
0.00053895302
0.00051696506
0.00049771823
0.00047968611
0.00046386007
0.00044882159
0.00043561002
0.00042289097
0.00041172029
0.00040083451
0.00039128584
0.00038187406
0.00037363462
0.00036542565
0.0003582573
0.00035104261
0.00034476096
0.00033837758
0.00033283771
0.00032715642
0.00032224293
0.00031715993
0.00031277984
0.00030821079
0.00030428836
0.000300164
0.00029663698
0.00029289988
0.00028971663
0.0002863188
0.00028343613
0.00028033711
0.00027771866
0.0002748841
0.00027249903
0.0002698996
0.00026772159
0.00026533207
0.00026333851
0.0002611371
0.00025930849
0.00025727626
0.00025559566
0.0002537161
0.00025216873
0.00025042736
0.00024900028
0.00024738436
0.00024606618
0.00024456446
0.00024334508
0.00024194763
0.0002408181
0.00023951606
0.00023846839
0.00023725389
0.00023628094
0.00023514693
0.0002342423
0.00023318248
0.00023234039
0.00023134909
0.00023057459
0.00022966112
0.00022892421
0.00022802993
0.00022731088
0.00022643535
0.00022573342
0.00022487623
0.00022419071
0.00022335151
0.00022268167
0.00022186019
0.00022120533
0.00022040141
0.00021976086
0.00021897451
0.00021834783
0.00021757949
0.0002169671
0.00021621883
0.00021562621
0.00021491447
0.00021437928
0.00021446068
0.0010239753
0.0009320157
0.00085691078
0.00079366883
0.00074060304
0.00069458469
0.00065526123
0.00062034949
0.00059014582
0.00056279913
0.00053894364
0.000516975
0.00049770826
0.00047969658
0.00046384958
0.00044883254
0.00043559906
0.00042290236
0.0004117089
0.00040084628
0.00039127407
0.00038188619
0.0003736225
0.0003654381
0.00035824486
0.00035105535
0.00034474824
0.00033839058
0.00033282473
0.00032716965
0.00032222973
0.00031717337
0.00031276644
0.00030822441
0.00030427478
0.00030017778
0.00029662324
0.00029291381
0.00028970275
0.00028633285
0.00028342214
0.00028035126
0.00027770457
0.00027489834
0.00027248486
0.00026991391
0.00026770735
0.00026534643
0.00026332422
0.0002611515
0.00025929417
0.00025729068
0.00025558133
0.00025373052
0.0002521544
0.00025044177
0.00024898597
0.00024739874
0.0002460519
0.0002445788
0.00024333086
0.0002419619
0.00024080396
0.00023953024
0.00023845435
0.00023726795
0.00023626703
0.00023516086
0.00023422854
0.00023319623
0.00023232682
0.00023136263
0.00023056159
0.00022967434
0.00022891088
0.00022804347
0.00022729724
0.00022644919
0.00022571949
0.00022489035
0.00022417651
0.00022336589
0.00022266723
0.00022187479
0.0002211907
0.00022041618
0.00021974609
0.00021898939
0.00021833297
0.00021759442
0.00021695223
0.00021623374
0.00021561127
0.00021492948
0.00021436239
0.00021444054
0.0010239698
0.00093202223
0.00085690432
0.0007936762
0.00074059569
0.00069459284
0.00065525308
0.00062035835
0.00059013695
0.00056280864
0.00053893412
0.0005169851
0.00049769815
0.00047970722
0.00046383893
0.00044884366
0.00043558792
0.00042291392
0.00041169732
0.00040085826
0.00039126208
0.00038189854
0.00037361014
0.00036545079
0.00035823217
0.00035106835
0.00034473524
0.00033840387
0.00033281146
0.0003271832
0.00032221619
0.00031718716
0.00031275267
0.00030823841
0.0003042608
0.00030019198
0.00029660907
0.00029292818
0.00028968842
0.00028634737
0.00028340766
0.00028036592
0.00027768996
0.00027491312
0.00027247014
0.00026992879
0.00026769254
0.00026536139
0.00026330933
0.00026116652
0.00025927923
0.00025730574
0.00025556635
0.0002537456
0.00025213941
0.00025045685
0.000248971
0.0002474138
0.00024603696
0.0002445938
0.00024331599
0.00024197681
0.00024078918
0.00023954504
0.00023843971
0.0002372826
0.00023625256
0.00023517531
0.00023421428
0.00023321046
0.0002323128
0.0002313766
0.00023054822
0.00022968792
0.00022889723
0.00022805732
0.00022728333
0.00022646328
0.00022570535
0.00022490466
0.00022416218
0.00022338036
0.00022265275
0.00022188939
0.00022117612
0.00022043085
0.00021973146
0.00021900409
0.00021831835
0.00021760909
0.00021693764
0.00021624836
0.00021559663
0.00021494416
0.00021434593