/*--------------------------------*- C++ -*----------------------------------*\
  =========                 |
  \\      /  F ield         | OpenFOAM: The Open Source CFD Toolbox
   \\    /   O peration     | Website:  https://openfoam.org
    \\  /    A nd           | Version:  6
     \\/     M anipulation  |
\*---------------------------------------------------------------------------*/
FoamFile
{
    version     2.0;
    format      ascii;
    class       volScalarField;
    location    "3600";
    object      nut;
}
// * * * * * * * * * * * * * * * * * * * * * * * * * * * * * * * * * * * * * //

dimensions      [0 2 -1 0 0 0 0];

internalField   nonuniform List<scalar> 
209825
(
1.2398211e-07
1.2300368e-07
1.222478e-07
1.2143114e-07
1.2084491e-07
1.2013765e-07
1.1968011e-07
1.1904967e-07
1.1869369e-07
1.1811883e-07
1.1784531e-07
1.1731175e-07
1.1710654e-07
1.1660445e-07
1.1645664e-07
1.1597917e-07
1.1588002e-07
1.1542239e-07
1.1536472e-07
1.1492358e-07
1.1490135e-07
1.1447441e-07
1.1448244e-07
1.1406814e-07
1.1410195e-07
1.1369925e-07
1.1375493e-07
1.1336319e-07
1.1343728e-07
1.1305613e-07
1.1314558e-07
1.1277483e-07
1.1287692e-07
1.1251653e-07
1.1262887e-07
1.1227883e-07
1.123993e-07
1.1205968e-07
1.1218641e-07
1.1185728e-07
1.1198862e-07
1.1167004e-07
1.1180455e-07
1.1149657e-07
1.11633e-07
1.1133563e-07
1.114729e-07
1.1118612e-07
1.1132331e-07
1.1104707e-07
1.1118339e-07
1.109176e-07
1.1105239e-07
1.107969e-07
1.1092964e-07
1.1068427e-07
1.1081454e-07
1.1057907e-07
1.1070652e-07
1.1048072e-07
1.1060511e-07
1.1038867e-07
1.1050984e-07
1.1030246e-07
1.1042031e-07
1.1022164e-07
1.1033614e-07
1.101458e-07
1.1025699e-07
1.1007458e-07
1.1018254e-07
1.1000764e-07
1.1011114e-07
1.0994595e-07
1.1004854e-07
1.0988262e-07
1.0998713e-07
1.0982011e-07
1.0992698e-07
1.0975831e-07
1.0986817e-07
1.096971e-07
1.0981081e-07
1.0963637e-07
1.0975505e-07
1.0957602e-07
1.0970099e-07
1.0951616e-07
1.0964879e-07
1.0945667e-07
1.0960154e-07
1.093707e-07
1.0956547e-07
1.1063558e-07
1.689114e-08
3.8434997e-08
1.2398208e-07
1.2300372e-07
1.2224776e-07
1.214312e-07
1.2084486e-07
1.2013772e-07
1.1968004e-07
1.1904975e-07
1.1869361e-07
1.1811892e-07
1.1784522e-07
1.1731185e-07
1.1710645e-07
1.1660455e-07
1.1645654e-07
1.1597928e-07
1.1587992e-07
1.154225e-07
1.1536461e-07
1.1492369e-07
1.1490125e-07
1.1447451e-07
1.1448234e-07
1.1406823e-07
1.1410186e-07
1.1369934e-07
1.1375485e-07
1.1336327e-07
1.1343721e-07
1.130562e-07
1.1314552e-07
1.1277488e-07
1.1287689e-07
1.1251656e-07
1.1262885e-07
1.1227884e-07
1.123993e-07
1.1205967e-07
1.1218643e-07
1.1185725e-07
1.1198866e-07
1.1166999e-07
1.1180461e-07
1.114965e-07
1.1163308e-07
1.1133554e-07
1.11473e-07
1.1118602e-07
1.1132342e-07
1.1104695e-07
1.1118352e-07
1.1091746e-07
1.1105253e-07
1.1079676e-07
1.1092979e-07
1.1068413e-07
1.1081469e-07
1.1057893e-07
1.1070667e-07
1.1048057e-07
1.1060525e-07
1.1038854e-07
1.1050997e-07
1.1030235e-07
1.1042041e-07
1.1022155e-07
1.1033621e-07
1.1014575e-07
1.1025701e-07
1.1007458e-07
1.1018251e-07
1.1000771e-07
1.1011103e-07
1.099461e-07
1.1004833e-07
1.0988289e-07
1.0998678e-07
1.0982055e-07
1.0992643e-07
1.0975898e-07
1.0986735e-07
1.096981e-07
1.0980962e-07
1.0963778e-07
1.0975341e-07
1.0957788e-07
1.0969891e-07
1.0951847e-07
1.0964599e-07
1.0946118e-07
1.0959091e-07
1.0935935e-07
1.0966619e-07
1.1090865e-07
9.1979035e-09
3.0819485e-08
1.2398202e-07
1.230038e-07
1.2224767e-07
1.214313e-07
1.2084475e-07
1.2013785e-07
1.1967991e-07
1.190499e-07
1.1869345e-07
1.1811909e-07
1.1784504e-07
1.1731204e-07
1.1710625e-07
1.1660476e-07
1.1645633e-07
1.1597949e-07
1.158797e-07
1.1542272e-07
1.153644e-07
1.1492391e-07
1.1490103e-07
1.1447473e-07
1.1448214e-07
1.1406844e-07
1.1410167e-07
1.1369953e-07
1.1375468e-07
1.1336343e-07
1.1343707e-07
1.1305633e-07
1.1314541e-07
1.1277499e-07
1.1287681e-07
1.1251663e-07
1.126288e-07
1.1227887e-07
1.123993e-07
1.1205966e-07
1.1218647e-07
1.118572e-07
1.1198874e-07
1.116699e-07
1.1180473e-07
1.1149636e-07
1.1163324e-07
1.1133537e-07
1.1147319e-07
1.1118581e-07
1.1132365e-07
1.1104671e-07
1.1118378e-07
1.109172e-07
1.1105281e-07
1.1079647e-07
1.1093009e-07
1.1068383e-07
1.1081499e-07
1.1057862e-07
1.1070698e-07
1.1048028e-07
1.1060554e-07
1.1038826e-07
1.1051023e-07
1.103021e-07
1.1042064e-07
1.1022136e-07
1.1033637e-07
1.1014563e-07
1.102571e-07
1.1007456e-07
1.1018248e-07
1.100078e-07
1.1011087e-07
1.0994634e-07
1.1004799e-07
1.0988335e-07
1.0998618e-07
1.0982132e-07
1.0992547e-07
1.0976018e-07
1.0986587e-07
1.0969989e-07
1.0980746e-07
1.0964036e-07
1.0975036e-07
1.0958141e-07
1.0969496e-07
1.095227e-07
1.0964182e-07
1.0946475e-07
1.0958791e-07
1.0936801e-07
1.0967568e-07
1.1081037e-07
1.045357e-08
6.1962122e-09
1.2398192e-07
1.2300393e-07
1.2224754e-07
1.2143146e-07
1.2084458e-07
1.2013805e-07
1.196797e-07
1.1905014e-07
1.186932e-07
1.1811936e-07
1.1784477e-07
1.1731234e-07
1.1710595e-07
1.1660508e-07
1.1645601e-07
1.1597983e-07
1.1587937e-07
1.1542306e-07
1.1536406e-07
1.1492426e-07
1.149007e-07
1.1447507e-07
1.1448182e-07
1.1406876e-07
1.1410137e-07
1.1369982e-07
1.1375441e-07
1.1336369e-07
1.1343684e-07
1.1305655e-07
1.1314522e-07
1.1277515e-07
1.1287667e-07
1.1251674e-07
1.1262872e-07
1.1227893e-07
1.1239928e-07
1.1205966e-07
1.1218651e-07
1.1185713e-07
1.1198884e-07
1.1166977e-07
1.1180489e-07
1.1149617e-07
1.1163346e-07
1.1133512e-07
1.1147348e-07
1.1118551e-07
1.1132399e-07
1.1104636e-07
1.1118416e-07
1.109168e-07
1.1105323e-07
1.1079604e-07
1.1093054e-07
1.1068338e-07
1.1081546e-07
1.1057816e-07
1.1070745e-07
1.1047982e-07
1.10606e-07
1.1038783e-07
1.1051066e-07
1.103017e-07
1.1042101e-07
1.1022102e-07
1.1033668e-07
1.1014538e-07
1.102573e-07
1.1007443e-07
1.1018255e-07
1.1000783e-07
1.1011077e-07
1.0994655e-07
1.1004766e-07
1.0988383e-07
1.0998553e-07
1.0982217e-07
1.0992437e-07
1.0976157e-07
1.0986415e-07
1.0970203e-07
1.0980484e-07
1.0964355e-07
1.0974652e-07
1.0958602e-07
1.0968955e-07
1.0952881e-07
1.0963571e-07
1.0946827e-07
1.0959644e-07
1.0937292e-07
1.0962998e-07
1.1075931e-07
1.6638551e-08
5.1281187e-09
1.2398179e-07
1.230041e-07
1.2224735e-07
1.2143169e-07
1.2084434e-07
1.2013832e-07
1.1967941e-07
1.1905046e-07
1.1869287e-07
1.1811973e-07
1.1784439e-07
1.1731275e-07
1.1710554e-07
1.1660552e-07
1.1645557e-07
1.1598029e-07
1.1587891e-07
1.1542354e-07
1.1536359e-07
1.1492473e-07
1.1490024e-07
1.1447553e-07
1.1448137e-07
1.140692e-07
1.1410095e-07
1.1370023e-07
1.1375403e-07
1.1336406e-07
1.134365e-07
1.1305686e-07
1.1314494e-07
1.1277541e-07
1.1287646e-07
1.1251692e-07
1.1262859e-07
1.1227904e-07
1.1239922e-07
1.1205969e-07
1.1218653e-07
1.1185707e-07
1.1198895e-07
1.1166962e-07
1.1180509e-07
1.1149595e-07
1.1163374e-07
1.1133481e-07
1.1147383e-07
1.1118512e-07
1.1132442e-07
1.1104591e-07
1.1118465e-07
1.1091629e-07
1.1105378e-07
1.1079548e-07
1.1093113e-07
1.1068278e-07
1.1081608e-07
1.1057754e-07
1.1070808e-07
1.1047919e-07
1.1060663e-07
1.1038721e-07
1.1051127e-07
1.1030112e-07
1.1042158e-07
1.102205e-07
1.1033717e-07
1.1014494e-07
1.1025769e-07
1.100741e-07
1.1018281e-07
1.1000766e-07
1.1011085e-07
1.0994657e-07
1.1004753e-07
1.098841e-07
1.0998511e-07
1.098228e-07
1.0992353e-07
1.097627e-07
1.0986271e-07
1.0970387e-07
1.0980254e-07
1.0964645e-07
1.0974289e-07
1.0959059e-07
1.0968373e-07
1.0953639e-07
1.0962547e-07
1.0948324e-07
1.0957081e-07
1.0943023e-07
1.0952645e-07
1.1024071e-07
3.3788626e-08
8.2133091e-09
1.2398162e-07
1.2300432e-07
1.2224712e-07
1.2143197e-07
1.2084404e-07
1.2013867e-07
1.1967905e-07
1.1905088e-07
1.1869244e-07
1.1812021e-07
1.178439e-07
1.1731327e-07
1.17105e-07
1.1660609e-07
1.16455e-07
1.1598089e-07
1.1587831e-07
1.1542416e-07
1.1536298e-07
1.1492536e-07
1.1489963e-07
1.1447614e-07
1.1448078e-07
1.1406979e-07
1.141004e-07
1.1370078e-07
1.1375352e-07
1.1336456e-07
1.1343605e-07
1.1305729e-07
1.1314456e-07
1.1277576e-07
1.1287616e-07
1.1251719e-07
1.1262838e-07
1.1227921e-07
1.1239911e-07
1.1205976e-07
1.1218652e-07
1.1185705e-07
1.1198904e-07
1.1166949e-07
1.1180529e-07
1.1149571e-07
1.1163404e-07
1.1133447e-07
1.1147423e-07
1.1118469e-07
1.1132491e-07
1.1104538e-07
1.1118523e-07
1.1091568e-07
1.1105444e-07
1.1079481e-07
1.1093185e-07
1.1068205e-07
1.1081685e-07
1.1057677e-07
1.1070888e-07
1.1047839e-07
1.1060745e-07
1.1038641e-07
1.1051208e-07
1.1030033e-07
1.1042236e-07
1.1021975e-07
1.103379e-07
1.1014425e-07
1.1025835e-07
1.100735e-07
1.1018337e-07
1.1000717e-07
1.1011127e-07
1.0994622e-07
1.100478e-07
1.0988393e-07
1.0998518e-07
1.0982286e-07
1.0992333e-07
1.0976308e-07
1.0986212e-07
1.0970473e-07
1.0980138e-07
1.0964802e-07
1.0974082e-07
1.095934e-07
1.0967987e-07
1.0954199e-07
1.0961679e-07
1.0949804e-07
1.0954283e-07
1.0948842e-07
1.0941886e-07
1.0981548e-07
8.3627007e-08
3.2505219e-08
1.2398142e-07
1.2300459e-07
1.2224684e-07
1.2143232e-07
1.2084368e-07
1.201391e-07
1.196786e-07
1.1905139e-07
1.1869191e-07
1.1812079e-07
1.178433e-07
1.1731392e-07
1.1710434e-07
1.166068e-07
1.1645429e-07
1.1598164e-07
1.1587757e-07
1.1542493e-07
1.1536222e-07
1.1492613e-07
1.1489887e-07
1.1447691e-07
1.1448004e-07
1.1407053e-07
1.1409969e-07
1.1370148e-07
1.1375286e-07
1.133652e-07
1.1343546e-07
1.1305787e-07
1.1314405e-07
1.1277624e-07
1.1287574e-07
1.1251758e-07
1.1262806e-07
1.1227949e-07
1.123989e-07
1.1205992e-07
1.1218644e-07
1.1185709e-07
1.1198908e-07
1.1166941e-07
1.1180545e-07
1.114955e-07
1.1163432e-07
1.1133414e-07
1.1147464e-07
1.1118424e-07
1.1132543e-07
1.1104482e-07
1.1118586e-07
1.1091502e-07
1.1105516e-07
1.1079405e-07
1.1093266e-07
1.1068121e-07
1.1081773e-07
1.1057587e-07
1.1070982e-07
1.1047744e-07
1.1060843e-07
1.1038542e-07
1.1051309e-07
1.1029933e-07
1.1042338e-07
1.1021874e-07
1.1033891e-07
1.1014326e-07
1.1025933e-07
1.1007255e-07
1.1018431e-07
1.1000627e-07
1.1011214e-07
1.0994538e-07
1.1004864e-07
1.0988312e-07
1.0998598e-07
1.098221e-07
1.0992407e-07
1.0976238e-07
1.098628e-07
1.0970408e-07
1.0980201e-07
1.0964743e-07
1.0974139e-07
1.0959286e-07
1.0968039e-07
1.0954149e-07
1.0961742e-07
1.0949663e-07
1.095479e-07
1.0946754e-07
1.0946397e-07
1.0952615e-07
1.0951737e-07
6.6785601e-08
1.2398117e-07
1.230049e-07
1.222465e-07
1.2143273e-07
1.2084324e-07
1.2013962e-07
1.1967806e-07
1.19052e-07
1.1869128e-07
1.181215e-07
1.1784258e-07
1.1731471e-07
1.1710355e-07
1.1660764e-07
1.1645344e-07
1.1598254e-07
1.1587667e-07
1.1542586e-07
1.153613e-07
1.1492708e-07
1.1489794e-07
1.1447786e-07
1.1447912e-07
1.1407145e-07
1.140988e-07
1.1370236e-07
1.1375202e-07
1.1336602e-07
1.1343469e-07
1.1305861e-07
1.1314337e-07
1.1277689e-07
1.1287516e-07
1.1251811e-07
1.126276e-07
1.1227991e-07
1.1239856e-07
1.1206021e-07
1.1218623e-07
1.1185724e-07
1.1198901e-07
1.1166942e-07
1.1180552e-07
1.1149537e-07
1.1163454e-07
1.1133387e-07
1.11475e-07
1.1118383e-07
1.1132593e-07
1.1104428e-07
1.1118648e-07
1.1091435e-07
1.1105591e-07
1.1079326e-07
1.1093352e-07
1.1068031e-07
1.1081869e-07
1.1057487e-07
1.1071087e-07
1.1047637e-07
1.1060956e-07
1.1038428e-07
1.1051428e-07
1.1029812e-07
1.1042463e-07
1.1021749e-07
1.1034021e-07
1.1014197e-07
1.1026066e-07
1.1007122e-07
1.1018567e-07
1.100049e-07
1.1011349e-07
1.0994399e-07
1.1005011e-07
1.0988161e-07
1.0998758e-07
1.0982043e-07
1.0992586e-07
1.0976048e-07
1.0986489e-07
1.0970181e-07
1.0980457e-07
1.0964453e-07
1.0974481e-07
1.0958876e-07
1.0968558e-07
1.0953464e-07
1.0962713e-07
1.094818e-07
1.0957255e-07
1.0942349e-07
1.0954746e-07
1.0929414e-07
1.0995596e-07
4.3770729e-08
1.2398089e-07
1.2300527e-07
1.222461e-07
1.2143322e-07
1.2084272e-07
1.2014022e-07
1.1967743e-07
1.1905271e-07
1.1869054e-07
1.1812232e-07
1.1784174e-07
1.1731562e-07
1.1710261e-07
1.1660865e-07
1.1645242e-07
1.1598361e-07
1.158756e-07
1.1542697e-07
1.1536019e-07
1.1492822e-07
1.1489682e-07
1.14479e-07
1.1447801e-07
1.1407258e-07
1.1409771e-07
1.1370345e-07
1.1375099e-07
1.1336704e-07
1.1343373e-07
1.1305955e-07
1.131425e-07
1.1277774e-07
1.1287439e-07
1.1251884e-07
1.1262695e-07
1.1228051e-07
1.1239805e-07
1.1206067e-07
1.1218586e-07
1.1185755e-07
1.119888e-07
1.1166958e-07
1.1180546e-07
1.1149537e-07
1.1163464e-07
1.1133371e-07
1.1147525e-07
1.1118351e-07
1.1132634e-07
1.1104381e-07
1.1118705e-07
1.1091373e-07
1.1105662e-07
1.107925e-07
1.1093436e-07
1.1067942e-07
1.1081967e-07
1.1057385e-07
1.1071197e-07
1.1047523e-07
1.1061077e-07
1.1038303e-07
1.105156e-07
1.1029677e-07
1.1042605e-07
1.1021603e-07
1.1034173e-07
1.1014041e-07
1.1026229e-07
1.1006956e-07
1.1018741e-07
1.1000313e-07
1.101153e-07
1.099421e-07
1.1005214e-07
1.0987947e-07
1.0998989e-07
1.0981796e-07
1.0992856e-07
1.0975756e-07
1.0986813e-07
1.0969823e-07
1.0980862e-07
1.0963992e-07
1.0975018e-07
1.0958242e-07
1.0969329e-07
1.0952508e-07
1.0963934e-07
1.0946604e-07
1.0959267e-07
1.0940028e-07
1.0956454e-07
1.0930062e-07
1.0973406e-07
5.3398146e-08
1.2398057e-07
1.230057e-07
1.2224565e-07
1.2143377e-07
1.2084214e-07
1.2014091e-07
1.196767e-07
1.1905354e-07
1.1868968e-07
1.1812327e-07
1.1784076e-07
1.1731669e-07
1.1710153e-07
1.1660981e-07
1.1645125e-07
1.1598485e-07
1.1587436e-07
1.1542828e-07
1.153589e-07
1.1492957e-07
1.1489549e-07
1.1448036e-07
1.1447668e-07
1.1407393e-07
1.140964e-07
1.1370476e-07
1.1374972e-07
1.133683e-07
1.1343253e-07
1.1306073e-07
1.1314138e-07
1.1277882e-07
1.1287339e-07
1.1251982e-07
1.1262607e-07
1.1228135e-07
1.123973e-07
1.1206137e-07
1.1218526e-07
1.1185809e-07
1.1198836e-07
1.1166996e-07
1.1180519e-07
1.1149558e-07
1.1163454e-07
1.1133375e-07
1.1147532e-07
1.1118338e-07
1.1132658e-07
1.110435e-07
1.1118746e-07
1.1091326e-07
1.110572e-07
1.1079186e-07
1.1093511e-07
1.1067862e-07
1.1082057e-07
1.1057289e-07
1.1071303e-07
1.1047412e-07
1.1061198e-07
1.1038176e-07
1.1051696e-07
1.1029536e-07
1.1042756e-07
1.1021447e-07
1.1034339e-07
1.101387e-07
1.102641e-07
1.1006768e-07
1.1018939e-07
1.1000108e-07
1.1011741e-07
1.0993988e-07
1.1005455e-07
1.0987691e-07
1.0999268e-07
1.0981498e-07
1.0993182e-07
1.0975403e-07
1.0987202e-07
1.0969398e-07
1.0981335e-07
1.0963469e-07
1.0975605e-07
1.0957585e-07
1.097007e-07
1.0951681e-07
1.0964843e-07
1.0945663e-07
1.0960122e-07
1.093951e-07
1.0956197e-07
1.0931308e-07
1.096081e-07
6.7759864e-08
1.239802e-07
1.2300618e-07
1.2224514e-07
1.214344e-07
1.2084147e-07
1.2014169e-07
1.1967588e-07
1.1905447e-07
1.1868871e-07
1.1812435e-07
1.1783965e-07
1.173179e-07
1.1710029e-07
1.1661114e-07
1.1644989e-07
1.1598628e-07
1.1587291e-07
1.1542979e-07
1.1535739e-07
1.1493113e-07
1.1489394e-07
1.1448195e-07
1.1447511e-07
1.1407552e-07
1.1409484e-07
1.1370634e-07
1.1374819e-07
1.1336983e-07
1.1343105e-07
1.130622e-07
1.1313999e-07
1.1278019e-07
1.1287209e-07
1.1252108e-07
1.1262489e-07
1.1228248e-07
1.1239626e-07
1.1206236e-07
1.1218437e-07
1.1185893e-07
1.1198763e-07
1.1167063e-07
1.1180463e-07
1.1149608e-07
1.1163415e-07
1.1133407e-07
1.1147512e-07
1.1118351e-07
1.1132656e-07
1.1104345e-07
1.1118763e-07
1.1091302e-07
1.1105755e-07
1.1079144e-07
1.1093565e-07
1.1067801e-07
1.1082129e-07
1.1057211e-07
1.1071393e-07
1.1047315e-07
1.1061306e-07
1.1038061e-07
1.1051823e-07
1.1029403e-07
1.1042901e-07
1.1021295e-07
1.1034502e-07
1.1013699e-07
1.1026593e-07
1.1006577e-07
1.1019142e-07
1.0999896e-07
1.101196e-07
1.0993756e-07
1.1005707e-07
1.0987423e-07
1.0999559e-07
1.0981188e-07
1.099352e-07
1.0975043e-07
1.0987593e-07
1.0968979e-07
1.0981788e-07
1.0962987e-07
1.0976121e-07
1.0957048e-07
1.0970621e-07
1.0951147e-07
1.0965316e-07
1.0945338e-07
1.0960173e-07
1.0939914e-07
1.0955079e-07
1.0934028e-07
1.0950516e-07
7.6988076e-08
1.2397979e-07
1.2300671e-07
1.2224457e-07
1.2143511e-07
1.2084072e-07
1.2014257e-07
1.1967496e-07
1.1905552e-07
1.1868762e-07
1.1812556e-07
1.1783839e-07
1.1731927e-07
1.1709888e-07
1.1661265e-07
1.1644836e-07
1.1598791e-07
1.1587127e-07
1.1543152e-07
1.1535565e-07
1.1493293e-07
1.1489214e-07
1.144838e-07
1.1447327e-07
1.140774e-07
1.14093e-07
1.1370821e-07
1.1374636e-07
1.1337167e-07
1.1342927e-07
1.1306398e-07
1.1313827e-07
1.127819e-07
1.1287046e-07
1.1252269e-07
1.1262337e-07
1.1228397e-07
1.1239486e-07
1.1206372e-07
1.1218312e-07
1.1186013e-07
1.1198653e-07
1.1167167e-07
1.118037e-07
1.1149695e-07
1.116334e-07
1.1133476e-07
1.1147455e-07
1.1118401e-07
1.1132618e-07
1.1104376e-07
1.1118744e-07
1.1091313e-07
1.1105756e-07
1.1079136e-07
1.1093585e-07
1.1067773e-07
1.108217e-07
1.1057163e-07
1.1071454e-07
1.1047247e-07
1.1061387e-07
1.1037973e-07
1.1051923e-07
1.1029294e-07
1.1043022e-07
1.1021166e-07
1.1034644e-07
1.1013549e-07
1.1026756e-07
1.1006406e-07
1.1019327e-07
1.0999703e-07
1.1012161e-07
1.0993544e-07
1.1005938e-07
1.0987179e-07
1.0999825e-07
1.0980908e-07
1.0993822e-07
1.0974725e-07
1.0987933e-07
1.0968625e-07
1.098216e-07
1.0962606e-07
1.0976508e-07
1.0956671e-07
1.0970976e-07
1.0950845e-07
1.0965538e-07
1.094524e-07
1.0960114e-07
1.0940142e-07
1.0954788e-07
1.0934073e-07
1.0954083e-07
8.1105746e-08
1.2397934e-07
1.230073e-07
1.2224393e-07
1.2143588e-07
1.208399e-07
1.2014354e-07
1.1967394e-07
1.1905669e-07
1.186864e-07
1.1812692e-07
1.1783699e-07
1.173208e-07
1.1709731e-07
1.1661434e-07
1.1644663e-07
1.1598975e-07
1.158694e-07
1.1543347e-07
1.1535368e-07
1.1493499e-07
1.1489008e-07
1.1448593e-07
1.1447115e-07
1.1407957e-07
1.1409085e-07
1.137104e-07
1.1374421e-07
1.1337385e-07
1.1342713e-07
1.1306613e-07
1.1313618e-07
1.1278399e-07
1.1286844e-07
1.1252469e-07
1.1262144e-07
1.1228588e-07
1.1239305e-07
1.120655e-07
1.1218143e-07
1.1186178e-07
1.1198498e-07
1.1167317e-07
1.1180231e-07
1.1149828e-07
1.1163218e-07
1.1133592e-07
1.1147351e-07
1.1118499e-07
1.1132533e-07
1.1104455e-07
1.1118678e-07
1.1091373e-07
1.1105709e-07
1.1079175e-07
1.1093559e-07
1.1067792e-07
1.1082164e-07
1.1057161e-07
1.1071468e-07
1.1047224e-07
1.1061422e-07
1.103793e-07
1.105198e-07
1.102923e-07
1.1043099e-07
1.1021081e-07
1.1034742e-07
1.1013443e-07
1.1026875e-07
1.100628e-07
1.1019465e-07
1.0999558e-07
1.1012315e-07
1.0993382e-07
1.1006117e-07
1.0986991e-07
1.1000029e-07
1.0980695e-07
1.099405e-07
1.0974488e-07
1.0988183e-07
1.0968371e-07
1.0982423e-07
1.0962347e-07
1.0976766e-07
1.0956428e-07
1.0971202e-07
1.0950649e-07
1.0965709e-07
1.0945092e-07
1.0960276e-07
1.0939918e-07
1.095516e-07
1.0933975e-07
1.0954867e-07
8.3711386e-08
1.2397885e-07
1.2300795e-07
1.2224324e-07
1.2143673e-07
1.2083899e-07
1.2014461e-07
1.1967282e-07
1.1905797e-07
1.1868506e-07
1.1812841e-07
1.1783544e-07
1.173225e-07
1.1709556e-07
1.1661623e-07
1.164447e-07
1.159918e-07
1.1586731e-07
1.1543567e-07
1.1535145e-07
1.1493731e-07
1.1488775e-07
1.1448835e-07
1.1446873e-07
1.1408206e-07
1.1408836e-07
1.1371293e-07
1.1374169e-07
1.1337641e-07
1.1342461e-07
1.1306867e-07
1.1313367e-07
1.127865e-07
1.1286598e-07
1.1252715e-07
1.1261904e-07
1.1228826e-07
1.1239074e-07
1.1206779e-07
1.1217923e-07
1.1186395e-07
1.1198291e-07
1.116752e-07
1.1180037e-07
1.1150017e-07
1.116304e-07
1.1133765e-07
1.1147189e-07
1.1118655e-07
1.1132388e-07
1.1104593e-07
1.1118551e-07
1.1091492e-07
1.1105602e-07
1.1079276e-07
1.1093471e-07
1.1067873e-07
1.1082096e-07
1.1057222e-07
1.1071421e-07
1.1047265e-07
1.1061395e-07
1.1037951e-07
1.1051972e-07
1.1029231e-07
1.1043112e-07
1.1021062e-07
1.1034774e-07
1.1013405e-07
1.1026925e-07
1.1006224e-07
1.1019533e-07
1.0999485e-07
1.1012396e-07
1.0993296e-07
1.1006215e-07
1.0986888e-07
1.1000143e-07
1.0980576e-07
1.0994179e-07
1.0974358e-07
1.0988321e-07
1.0968233e-07
1.0982565e-07
1.0962209e-07
1.0976906e-07
1.0956293e-07
1.0971341e-07
1.0950505e-07
1.0965879e-07
1.0944876e-07
1.0960584e-07
1.0939472e-07
1.0955793e-07
1.0934008e-07
1.0954413e-07
8.3680582e-08
1.2397832e-07
1.2300865e-07
1.2224249e-07
1.2143766e-07
1.2083801e-07
1.2014576e-07
1.1967159e-07
1.1905936e-07
1.186836e-07
1.1813004e-07
1.1783374e-07
1.1732436e-07
1.1709364e-07
1.166183e-07
1.1644257e-07
1.1599407e-07
1.15865e-07
1.1543812e-07
1.1534897e-07
1.1493991e-07
1.1488512e-07
1.1449108e-07
1.1446599e-07
1.1408489e-07
1.1408553e-07
1.1371584e-07
1.1373879e-07
1.1337937e-07
1.1342167e-07
1.1307166e-07
1.1313072e-07
1.1278949e-07
1.1286304e-07
1.1253011e-07
1.1261614e-07
1.1229117e-07
1.1238789e-07
1.1207063e-07
1.1217646e-07
1.1186671e-07
1.1198023e-07
1.1167786e-07
1.1179781e-07
1.1150271e-07
1.1162796e-07
1.1134005e-07
1.1146959e-07
1.1118881e-07
1.1132173e-07
1.1104803e-07
1.1118353e-07
1.1091686e-07
1.110542e-07
1.1079451e-07
1.1093307e-07
1.1068031e-07
1.108195e-07
1.1057362e-07
1.1071293e-07
1.1047386e-07
1.1061286e-07
1.1038053e-07
1.1051882e-07
1.1029315e-07
1.1043039e-07
1.1021129e-07
1.1034718e-07
1.1013456e-07
1.1026885e-07
1.100626e-07
1.1019507e-07
1.0999508e-07
1.1012382e-07
1.0993308e-07
1.1006211e-07
1.0986892e-07
1.1000146e-07
1.0980573e-07
1.0994188e-07
1.097435e-07
1.0988333e-07
1.0968223e-07
1.0982579e-07
1.0962196e-07
1.0976925e-07
1.0956271e-07
1.0971379e-07
1.0950451e-07
1.0965969e-07
1.0944742e-07
1.0960788e-07
1.0939183e-07
1.0956199e-07
1.0934234e-07
1.0953865e-07
8.4301465e-08
1.2397775e-07
1.230094e-07
1.2224168e-07
1.2143865e-07
1.2083695e-07
1.2014701e-07
1.1967027e-07
1.1906087e-07
1.1868201e-07
1.1813181e-07
1.178319e-07
1.1732638e-07
1.1709154e-07
1.1662057e-07
1.1644024e-07
1.1599656e-07
1.1586244e-07
1.1544082e-07
1.1534622e-07
1.149428e-07
1.1488219e-07
1.1449413e-07
1.1446291e-07
1.1408808e-07
1.1408233e-07
1.1371914e-07
1.1373549e-07
1.1338275e-07
1.1341829e-07
1.130751e-07
1.131273e-07
1.1279297e-07
1.1285959e-07
1.1253361e-07
1.1261268e-07
1.1229466e-07
1.1238445e-07
1.1207409e-07
1.1217306e-07
1.1187012e-07
1.1197689e-07
1.116812e-07
1.1179454e-07
1.1150596e-07
1.1162478e-07
1.113432e-07
1.1146652e-07
1.1119185e-07
1.1131879e-07
1.1105095e-07
1.1118071e-07
1.1091964e-07
1.1105153e-07
1.1079715e-07
1.1093054e-07
1.1068279e-07
1.1081713e-07
1.1057594e-07
1.1071072e-07
1.1047603e-07
1.106108e-07
1.1038255e-07
1.1051691e-07
1.1029502e-07
1.1042863e-07
1.1021301e-07
1.1034556e-07
1.1013615e-07
1.1026736e-07
1.1006406e-07
1.1019369e-07
1.0999644e-07
1.1012258e-07
1.0993434e-07
1.1006088e-07
1.0987017e-07
1.1000025e-07
1.0980698e-07
1.0994066e-07
1.0974476e-07
1.098821e-07
1.0968351e-07
1.0982455e-07
1.0962323e-07
1.0976804e-07
1.0956391e-07
1.0971269e-07
1.0950555e-07
1.0965879e-07
1.0944827e-07
1.0960706e-07
1.0939294e-07
1.0956003e-07
1.0934672e-07
1.0953371e-07
8.560858e-08
1.2397714e-07
1.2301021e-07
1.2224082e-07
1.2143972e-07
1.2083582e-07
1.2014835e-07
1.1966886e-07
1.190625e-07
1.1868031e-07
1.1813372e-07
1.1782991e-07
1.1732857e-07
1.1708928e-07
1.1662302e-07
1.1643771e-07
1.1599927e-07
1.1585966e-07
1.1544377e-07
1.153432e-07
1.1494596e-07
1.1487897e-07
1.1449749e-07
1.144595e-07
1.1409162e-07
1.1407875e-07
1.1372283e-07
1.1373177e-07
1.1338657e-07
1.1341446e-07
1.1307902e-07
1.1312337e-07
1.1279697e-07
1.1285559e-07
1.1253766e-07
1.1260864e-07
1.1229875e-07
1.1238039e-07
1.1207819e-07
1.1216899e-07
1.1187422e-07
1.1197283e-07
1.1168527e-07
1.1179052e-07
1.1151e-07
1.1162081e-07
1.1134718e-07
1.1146262e-07
1.1119575e-07
1.1131496e-07
1.1105476e-07
1.1117698e-07
1.1092335e-07
1.110479e-07
1.1080076e-07
1.1092702e-07
1.1068629e-07
1.1081372e-07
1.1057932e-07
1.1070744e-07
1.1047928e-07
1.1060764e-07
1.1038567e-07
1.1051388e-07
1.1029802e-07
1.1042571e-07
1.102159e-07
1.1034276e-07
1.1013893e-07
1.1026466e-07
1.1006675e-07
1.1019108e-07
1.0999904e-07
1.1012012e-07
1.0993685e-07
1.1005839e-07
1.0987272e-07
1.0999771e-07
1.0980958e-07
1.0993806e-07
1.0974742e-07
1.0987943e-07
1.0968623e-07
1.0982182e-07
1.0962601e-07
1.0976526e-07
1.0956676e-07
1.0970983e-07
1.0950851e-07
1.0965575e-07
1.0945154e-07
1.0960352e-07
1.0939694e-07
1.0955553e-07
1.0935155e-07
1.0952897e-07
8.7142944e-08
1.2397649e-07
1.2301106e-07
1.2223991e-07
1.2144084e-07
1.2083462e-07
1.2014977e-07
1.1966735e-07
1.1906422e-07
1.1867849e-07
1.1813575e-07
1.1782778e-07
1.173309e-07
1.1708685e-07
1.1662566e-07
1.1643498e-07
1.1600219e-07
1.1585666e-07
1.1544696e-07
1.1533993e-07
1.1494941e-07
1.1487545e-07
1.1450117e-07
1.1445576e-07
1.1409551e-07
1.140748e-07
1.1372691e-07
1.1372765e-07
1.1339082e-07
1.1341017e-07
1.1308342e-07
1.1311894e-07
1.128015e-07
1.1285105e-07
1.1254229e-07
1.1260401e-07
1.1230346e-07
1.1237568e-07
1.1208297e-07
1.1216423e-07
1.1187903e-07
1.1196804e-07
1.1169011e-07
1.1178571e-07
1.1151484e-07
1.1161601e-07
1.1135201e-07
1.1145783e-07
1.1120055e-07
1.1131021e-07
1.1105952e-07
1.1117228e-07
1.1092806e-07
1.1104325e-07
1.108054e-07
1.1092245e-07
1.1069086e-07
1.1080923e-07
1.1058381e-07
1.1070302e-07
1.1048369e-07
1.1060331e-07
1.1038999e-07
1.1050963e-07
1.1030225e-07
1.1042156e-07
1.1022005e-07
1.1033869e-07
1.1014299e-07
1.1026067e-07
1.1007073e-07
1.1018718e-07
1.1000293e-07
1.101164e-07
1.0994065e-07
1.1005457e-07
1.0987661e-07
1.099938e-07
1.0981357e-07
1.0993405e-07
1.0975152e-07
1.0987531e-07
1.0969045e-07
1.0981758e-07
1.0963036e-07
1.0976086e-07
1.0957128e-07
1.0970522e-07
1.0951331e-07
1.0965077e-07
1.094568e-07
1.0959797e-07
1.0940285e-07
1.095493e-07
1.0935801e-07
1.0952394e-07
8.8766966e-08
1.2397582e-07
1.2301195e-07
1.2223895e-07
1.2144203e-07
1.2083335e-07
1.2015127e-07
1.1966576e-07
1.1906604e-07
1.1867658e-07
1.181379e-07
1.1782553e-07
1.1733338e-07
1.1708427e-07
1.1662846e-07
1.1643208e-07
1.1600531e-07
1.1585344e-07
1.1545038e-07
1.1533642e-07
1.1495312e-07
1.1487166e-07
1.1450515e-07
1.144517e-07
1.1409974e-07
1.140705e-07
1.1373138e-07
1.1372312e-07
1.133955e-07
1.1340544e-07
1.1308829e-07
1.1311403e-07
1.1280653e-07
1.1284597e-07
1.1254748e-07
1.1259879e-07
1.1230878e-07
1.1237034e-07
1.120884e-07
1.1215879e-07
1.1188456e-07
1.1196252e-07
1.1169571e-07
1.1178012e-07
1.1152049e-07
1.1161037e-07
1.113577e-07
1.1145216e-07
1.1120627e-07
1.1130453e-07
1.1106524e-07
1.1116659e-07
1.1093377e-07
1.1103758e-07
1.108111e-07
1.109168e-07
1.1069653e-07
1.1080361e-07
1.1058944e-07
1.1069744e-07
1.1048928e-07
1.1059778e-07
1.1039553e-07
1.1050416e-07
1.1030773e-07
1.1041615e-07
1.1022546e-07
1.1033335e-07
1.1014833e-07
1.102554e-07
1.1007599e-07
1.1018198e-07
1.1000812e-07
1.1011141e-07
1.0994573e-07
1.1004945e-07
1.0988183e-07
1.0998853e-07
1.0981893e-07
1.0992864e-07
1.0975703e-07
1.0986975e-07
1.0969611e-07
1.0981185e-07
1.096362e-07
1.0975495e-07
1.0957733e-07
1.0969906e-07
1.0951964e-07
1.0964429e-07
1.094635e-07
1.0959108e-07
1.0941002e-07
1.095418e-07
1.0936605e-07
1.0951856e-07
9.0543242e-08
1.2397511e-07
1.2301288e-07
1.2223795e-07
1.2144326e-07
1.2083203e-07
1.2015283e-07
1.1966411e-07
1.1906794e-07
1.1867457e-07
1.1814015e-07
1.1782317e-07
1.1733598e-07
1.1708155e-07
1.1663141e-07
1.1642902e-07
1.160086e-07
1.1585004e-07
1.1545401e-07
1.1533269e-07
1.1495706e-07
1.1486761e-07
1.145094e-07
1.1444735e-07
1.1410428e-07
1.1406587e-07
1.1373619e-07
1.1371823e-07
1.1340056e-07
1.134003e-07
1.1309359e-07
1.1310866e-07
1.1281205e-07
1.128404e-07
1.125532e-07
1.1259302e-07
1.1231468e-07
1.1236441e-07
1.1209445e-07
1.121527e-07
1.1189075e-07
1.119563e-07
1.1170202e-07
1.1177379e-07
1.1152691e-07
1.1160394e-07
1.1136421e-07
1.1144565e-07
1.1121285e-07
1.1129795e-07
1.1107188e-07
1.1115996e-07
1.1094046e-07
1.1103092e-07
1.1081781e-07
1.1091011e-07
1.1070325e-07
1.1079691e-07
1.1059617e-07
1.1069075e-07
1.1049599e-07
1.1059111e-07
1.1040222e-07
1.1049751e-07
1.1031439e-07
1.1040953e-07
1.1023208e-07
1.1032678e-07
1.101549e-07
1.102489e-07
1.1008249e-07
1.1017555e-07
1.1001454e-07
1.1010524e-07
1.0995202e-07
1.1004309e-07
1.098883e-07
1.0998199e-07
1.0982559e-07
1.0992191e-07
1.0976387e-07
1.0986284e-07
1.0970314e-07
1.0980476e-07
1.0964341e-07
1.0974767e-07
1.0958473e-07
1.0969159e-07
1.0952722e-07
1.0963666e-07
1.0947121e-07
1.0958335e-07
1.0941781e-07
1.0953398e-07
1.093739e-07
1.0951244e-07
9.2412013e-08
1.2397438e-07
1.2301384e-07
1.2223692e-07
1.2144454e-07
1.2083066e-07
1.2015444e-07
1.1966239e-07
1.1906991e-07
1.1867248e-07
1.1814249e-07
1.1782072e-07
1.1733869e-07
1.1707872e-07
1.1663449e-07
1.1642582e-07
1.1601205e-07
1.1584648e-07
1.1545781e-07
1.1532877e-07
1.1496121e-07
1.1486335e-07
1.1451388e-07
1.1444276e-07
1.1410909e-07
1.1406096e-07
1.137413e-07
1.1371301e-07
1.1340597e-07
1.1339481e-07
1.1309927e-07
1.131029e-07
1.1281799e-07
1.1283438e-07
1.1255937e-07
1.1258678e-07
1.1232108e-07
1.1235794e-07
1.1210105e-07
1.1214604e-07
1.1189754e-07
1.1194946e-07
1.1170898e-07
1.1176679e-07
1.1153402e-07
1.1159679e-07
1.1137146e-07
1.1143838e-07
1.1122022e-07
1.1129056e-07
1.1107935e-07
1.1115248e-07
1.1094801e-07
1.1102336e-07
1.1082543e-07
1.1090249e-07
1.1071093e-07
1.1078925e-07
1.1060388e-07
1.1068306e-07
1.1050373e-07
1.105834e-07
1.1040997e-07
1.104898e-07
1.1032213e-07
1.1040184e-07
1.1023979e-07
1.1031912e-07
1.1016257e-07
1.1024129e-07
1.100901e-07
1.1016801e-07
1.1002207e-07
1.1009798e-07
1.0995941e-07
1.1003561e-07
1.0989592e-07
1.0997429e-07
1.0983343e-07
1.0991399e-07
1.0977193e-07
1.098547e-07
1.0971141e-07
1.0979641e-07
1.0965188e-07
1.0973914e-07
1.0959336e-07
1.0968292e-07
1.0953596e-07
1.0962794e-07
1.0947992e-07
1.0957475e-07
1.0942625e-07
1.0952584e-07
1.0938154e-07
1.0950109e-07
9.4354249e-08
1.2397364e-07
1.2301483e-07
1.2223586e-07
1.2144585e-07
1.2082926e-07
1.201561e-07
1.1966062e-07
1.1907194e-07
1.1867035e-07
1.1814489e-07
1.1781819e-07
1.1734148e-07
1.1707581e-07
1.1663766e-07
1.1642252e-07
1.160156e-07
1.1584279e-07
1.1546174e-07
1.1532471e-07
1.1496551e-07
1.1485892e-07
1.1451855e-07
1.1443797e-07
1.141141e-07
1.1405583e-07
1.1374665e-07
1.1370755e-07
1.1341164e-07
1.1338902e-07
1.1310525e-07
1.1309681e-07
1.1282426e-07
1.1282801e-07
1.1256593e-07
1.1258014e-07
1.1232789e-07
1.1235105e-07
1.1210811e-07
1.1213891e-07
1.1190482e-07
1.1194211e-07
1.1171647e-07
1.1175924e-07
1.115417e-07
1.1158907e-07
1.1137931e-07
1.1143048e-07
1.1122822e-07
1.1128252e-07
1.1108749e-07
1.1114431e-07
1.1095627e-07
1.1101508e-07
1.108338e-07
1.1089411e-07
1.1071938e-07
1.1078079e-07
1.1061241e-07
1.1067454e-07
1.105123e-07
1.1057484e-07
1.1041857e-07
1.1048123e-07
1.1033074e-07
1.1039326e-07
1.1024839e-07
1.1031057e-07
1.1017114e-07
1.1023277e-07
1.1009862e-07
1.1015955e-07
1.1003052e-07
1.1008983e-07
1.0996772e-07
1.100272e-07
1.0990449e-07
1.0996561e-07
1.0984226e-07
1.0990504e-07
1.0978103e-07
1.0984549e-07
1.0972076e-07
1.0978696e-07
1.0966147e-07
1.0972946e-07
1.0960316e-07
1.0967305e-07
1.0954591e-07
1.0961795e-07
1.0948996e-07
1.0956474e-07
1.0943619e-07