/*--------------------------------*- C++ -*----------------------------------*\
  =========                 |
  \\      /  F ield         | OpenFOAM: The Open Source CFD Toolbox
   \\    /   O peration     | Website:  https://openfoam.org
    \\  /    A nd           | Version:  6
     \\/     M anipulation  |
\*---------------------------------------------------------------------------*/
FoamFile
{
    version     2.0;
    format      ascii;
    class       volScalarField;
    location    "3600";
    object      omega;
}
// * * * * * * * * * * * * * * * * * * * * * * * * * * * * * * * * * * * * * //

dimensions      [0 0 -1 0 0 0 0];

internalField   nonuniform List<scalar> 
209825
(
8259.5271
7576.5699
7010.1846
6535.3104
6129.1879
5780.8528
5475.8264
5210.0595
4972.7932
4763.8417
4574.1573
4405.9536
4250.9376
4112.9428
3983.955
3868.9705
3760.0157
3662.9568
3569.7475
3486.9199
3406.3105
3334.9651
3264.5964
3202.6444
3140.7133
3086.5388
3031.6441
2983.9774
2935.0136
2892.8428
2848.9267
2811.4353
2771.8526
2738.3748
2702.5414
2672.5287
2639.9624
2612.9588
2583.258
2558.8817
2531.709
2509.6377
2484.7074
2464.6675
2441.7361
2423.4936
2402.352
2385.7062
2366.1739
2350.9511
2332.8713
2318.9211
2302.1568
2289.348
2273.779
2261.9968
2247.5173
2236.6607
2223.1769
2213.1571
2200.5857
2191.3237
2179.5905
2171.0165
2160.0551
2152.1064
2141.8574
2134.4782
2124.8881
2118.028
2109.0488
2102.6625
2094.3608
2088.4995
2080.5651
2074.8459
2067.0738
2061.4879
2053.8779
2048.4158
2040.9692
2035.6198
2028.3396
2023.0909
2015.9813
2010.8217
2003.8841
1998.8125
1992.0251
1987.0982
1980.3122
1975.8985
1968.3956
1995.6385
1924.7693
54386.522
8259.5272
7576.5698
7010.1848
6535.3102
6129.1881
5780.8526
5475.8266
5210.0593
4972.7934
4763.8415
4574.1575
4405.9534
4250.9378
4112.9427
3983.9551
3868.9704
3760.0158
3662.9568
3569.7475
3486.92
3406.3104
3334.9653
3264.5962
3202.6447
3140.7129
3086.5393
3031.6436
2983.9779
2935.013
2892.8435
2848.9259
2811.4362
2771.8517
2738.3758
2702.5403
2672.5298
2639.9612
2612.9601
2583.2567
2558.8831
2531.7075
2509.6392
2484.7059
2464.6691
2441.7344
2423.4954
2402.3503
2385.708
2366.172
2350.953
2332.8693
2318.9231
2302.1548
2289.35
2273.7769
2261.9989
2247.5151
2236.663
2223.1746
2213.1594
2200.5832
2191.3263
2179.5879
2171.0192
2160.0522
2152.1094
2141.8542
2134.4815
2124.8845
2118.0318
2109.0447
2102.6669
2094.3562
2088.5045
2080.5595
2074.8521
2067.0669
2061.4957
2053.8692
2048.4256
2040.9581
2035.6322
2028.3257
2023.1061
2015.965
2010.8381
2003.8702
1998.818
1992.0417
1987.0266
1980.5194
1975.3594
1970.0244
1991.2654
1944.4899
29206.36
8259.5275
7576.5694
7010.1852
6535.3098
6129.1885
5780.8522
5475.8271
5210.0588
4972.7938
4763.841
4574.1579
4405.953
4250.9381
4112.9424
3983.9554
3868.9702
3760.0159
3662.9567
3569.7474
3486.9202
3406.3101
3334.9656
3264.5957
3202.6453
3140.7122
3086.5402
3031.6425
2983.9791
2935.0117
2892.8449
2848.9243
2811.4379
2771.8498
2738.3779
2702.5381
2672.5321
2639.9587
2612.9627
2583.254
2558.886
2531.7046
2509.6423
2484.7027
2464.6724
2441.731
2423.4989
2402.3467
2385.7117
2366.1683
2350.9569
2332.8654
2318.9271
2302.1507
2289.3542
2273.7726
2262.0033
2247.5106
2236.6675
2223.1699
2213.1642
2200.5783
2191.3313
2179.5826
2171.0247
2160.0465
2152.1154
2141.848
2134.4881
2124.8775
2118.0392
2109.0368
2102.6754
2094.3473
2088.5142
2080.5488
2074.8639
2067.0536
2061.5105
2053.8526
2048.4442
2040.9371
2035.6558
2028.2991
2023.1358
2015.9321
2010.8735
2003.8338
1998.8515
1992.0197
1987.0187
1980.5947
1975.1522
1970.5428
1992.5923
1896.4304
15670.064
8259.5279
7576.5689
7010.1857
6535.3092
6129.1891
5780.8515
5475.8278
5210.0581
4972.7945
4763.8403
4574.1585
4405.9524
4250.9387
4112.9419
3983.9558
3868.9699
3760.0161
3662.9566
3569.7473
3486.9204
3406.3097
3334.9662
3264.5949
3202.6462
3140.7111
3086.5414
3031.641
2983.9808
2935.0097
2892.8471
2848.9219
2811.4405
2771.8469
2738.3809
2702.5349
2672.5356
2639.955
2612.9665
2583.2499
2558.8902
2531.7001
2509.647
2484.6978
2464.6774
2441.7259
2423.5041
2402.3412
2385.7172
2366.1626
2350.9627
2332.8595
2318.9331
2302.1445
2289.3605
2273.7662
2262.0098
2247.504
2236.6743
2223.163
2213.1713
2200.571
2191.3388
2179.5749
2171.0326
2160.0382
2152.124
2141.839
2134.4975
2124.8676
2118.0497
2109.0257
2102.6872
2094.335
2088.5275
2080.5341
2074.88
2067.0358
2061.5302
2053.8305
2048.4689
2040.9093
2035.6872
2028.2636
2023.1762
2015.886
2010.9265
2003.772
1998.9256
1991.9256
1987.1521
1980.3728
1975.5885
1969.4313
1986.8432
1956.9671
7733.9751
8259.5285
7576.5681
7010.1864
6535.3083
6129.19
5780.8505
5475.8287
5210.0571
4972.7955
4763.8393
4574.1594
4405.9515
4250.9395
4112.9412
3983.9564
3868.9694
3760.0164
3662.9565
3569.7473
3486.9206
3406.3093
3334.9668
3264.5941
3202.6473
3140.7097
3086.5431
3031.6391
2983.983
2935.0072
2892.8499
2848.9188
2811.4439
2771.8432
2738.3849
2702.5306
2672.5401
2639.9502
2612.9717
2583.2445
2558.8959
2531.6942
2509.6531
2484.6914
2464.684
2441.719
2423.5112
2402.334
2385.7246
2366.155
2350.9704
2332.8516
2318.9412
2302.1363
2289.3688
2273.7578
2262.0184
2247.4952
2236.6832
2223.1539
2213.1806
2200.5616
2191.3485
2179.565
2171.0428
2160.0278
2152.1348
2141.8278
2134.5092
2124.8555
2118.0623
2109.0125
2102.7011
2094.3207
2088.5429
2080.5174
2074.8982
2067.0158
2061.5522
2053.8062
2048.4959
2040.8791
2035.7211
2028.2252
2023.22
2015.8354
2010.9862
2003.6996
1999.0175
1991.8011
1987.3352
1980.0761
1976.1079
1968.1557
1976.609
1963.1599
4079.6629
8259.5292
7576.5672
7010.1874
6535.3071
6129.1912
5780.8492
5475.83
5210.0557
4972.7968
4763.838
4574.1607
4405.9503
4250.9406
4112.9402
3983.9572
3868.9687
3760.0169
3662.9561
3569.7474
3486.9207
3406.3089
3334.9675
3264.5931
3202.6486
3140.7081
3086.545
3031.6368
2983.9856
2935.0042
2892.8532
2848.9151
2811.448
2771.8388
2738.3897
2702.5254
2672.5457
2639.9442
2612.9779
2583.2378
2558.9028
2531.6869
2509.6607
2484.6836
2464.6922
2441.7106
2423.5198
2402.3251
2385.7338
2366.1456
2350.98
2332.8418
2318.9511
2302.1262
2289.3791
2273.7473
2262.029
2247.4845
2236.6941
2223.1429
2213.1918
2200.5502
2191.36
2179.5533
2171.0548
2160.0156
2152.1472
2141.815
2134.5222
2124.8421
2118.0762
2108.9982
2102.7159
2094.3058
2088.5587
2080.5004
2074.9163
2066.9963
2061.5731
2053.7834
2048.5207
2040.8518
2035.7512
2028.1917
2023.2576
2015.7926
2011.0355
2003.6416
1999.0866
1991.7183
1987.4313
1979.9818
1976.1214
1967.7924
1967.3642
1940.7103
2665.6085
8259.5302
7576.5659
7010.1886
6535.3057
6129.1926
5780.8476
5475.8315
5210.054
4972.7984
4763.8363
4574.1623
4405.9487
4250.942
4112.9388
3983.9584
3868.9677
3760.0177
3662.9555
3569.7477
3486.9206
3406.3086
3334.9681
3264.5921
3202.6499
3140.7064
3086.5471
3031.6343
2983.9885
2935.0008
2892.857
2848.9109
2811.4527
2771.8337
2738.3952
2702.5194
2672.5521
2639.9374
2612.9852
2583.2302
2558.9109
2531.6784
2509.6695
2484.6744
2464.7017
2441.7007
2423.53
2402.3146
2385.7445
2366.1346
2350.9912
2332.8304
2318.9627
2302.1143
2289.3911
2273.7351
2262.0413
2247.472
2236.7067
2223.1301
2213.2046
2200.5372
2191.3731
2179.54
2171.0681
2160.0021
2152.1608
2141.8013
2134.536
2124.8281
2118.0903
2108.9839
2102.7304
2094.2914
2088.5735
2080.485
2074.9322
2066.9796
2061.5905
2053.7652
2048.5398
2040.8317
2035.7723
2028.1693
2023.2812
2015.7676
2011.0616
2003.6152
1999.111
1991.7017
1987.4265
1980.0356
1975.9712
1968.7803
1963.8661
1966.4808
2170.2743
8259.5313
7576.5645
7010.1901
6535.3039
6129.1943
5780.8457
5475.8335
5210.052
4972.8004
4763.8342
4574.1643
4405.9467
4250.9438
4112.937
3983.9599
3868.9663
3760.0188
3662.9546
3569.7483
3486.9203
3406.3086
3334.9684
3264.5913
3202.651
3140.7048
3086.5491
3031.6318
2983.9915
2934.9973
2892.8609
2848.9064
2811.4576
2771.8281
2738.4012
2702.5128
2672.5591
2639.9299
2612.9932
2583.2217
2558.9198
2531.669
2509.6793
2484.6641
2464.7123
2441.6897
2423.5414
2402.3029
2385.7566
2366.1222
2351.0038
2332.8174
2318.9759
2302.101
2289.4046
2273.7214
2262.0552
2247.458
2236.7208
2223.1159
2213.2189
2200.5229
2191.3874
2179.5257
2171.0824
2159.9878
2152.175
2141.7872
2134.5501
2124.8141
2118.1041
2108.9702
2102.7438
2094.2786
2088.5863
2080.4722
2074.945
2066.967
2061.6029
2053.7531
2048.5513
2040.8209
2035.7822
2028.1607
2023.288
2015.7634
2011.062
2003.6204
1999.0969
1991.7295
1987.3781
1980.1115
1975.8717
1968.8242
1965.0304
1953.4039
2027.7279
8259.5326
7576.5627
7010.1919
6535.3018
6129.1964
5780.8433
5475.8358
5210.0494
4972.8029
4763.8316
4574.1667
4405.9442
4250.9462
4112.9347
3983.962
3868.9643
3760.0204
3662.9532
3569.7494
3486.9195
3406.3089
3334.9684
3264.5909
3202.6519
3140.7034
3086.5509
3031.6294
2983.9944
2934.9939
2892.8649
2848.9018
2811.4627
2771.8225
2738.4074
2702.5061
2672.5664
2639.9219
2613.0016
2583.2127
2558.9293
2531.659
2509.6898
2484.6531
2464.7238
2441.6778
2423.5537
2402.2901
2385.7697
2366.1088
2351.0176
2332.8034
2318.9902
2302.0864
2289.4194
2273.7064
2262.0703
2247.4427
2236.7361
2223.1006
2213.2342
2200.5075
2191.4027
2179.5105
2171.0974
2159.9729
2152.1897
2141.7727
2134.5642
2124.8004
2118.1174
2108.9574
2102.756
2094.2673
2088.5972
2080.4618
2074.9546
2066.9583
2061.6105
2053.7469
2048.5559
2040.8183
2035.7822
2028.1639
2023.2808
2015.7755
2011.0437
2003.6462
1999.0622
1991.7734
1987.3272
1980.1599
1975.8456
1968.82
1964.8834
1955.4234
1980.9667
8259.5342
7576.5607
7010.1939
6535.2994
6129.1989
5780.8405
5475.8387
5210.0464
4972.8059
4763.8285
4574.1698
4405.9411
4250.9491
4112.9318
3983.9647
3868.9618
3760.0227
3662.9511
3569.7511
3486.9181
3406.3099
3334.9678
3264.591
3202.6522
3140.7025
3086.5523
3031.6275
2983.9968
2934.9909
2892.8685
2848.8976
2811.4675
2771.817
2738.4135
2702.4993
2672.5737
2639.914
2613.0101
2583.2035
2558.939
2531.6487
2509.7007
2484.6417
2464.7357
2441.6654
2423.5666
2402.2768
2385.7834
2366.0946
2351.0321
2332.7885
2319.0053
2302.071
2289.435
2273.6906
2262.0863
2247.4266
2236.7523
2223.0843
2213.2505
2200.4913
2191.4188
2179.4946
2171.1132
2159.9575
2152.2048
2141.758
2134.5784
2124.7867
2118.1305
2108.945
2102.7676
2094.2568
2088.6069
2080.453
2074.9623
2066.9519
2061.6153
2053.7439
2048.5566
2040.8204
2035.7769
2028.1731
2023.267
2015.7947
2011.0183
2003.6786
1999.0226
1991.8197
1987.2768
1980.2088
1975.8095
1968.8321
1964.7861
1957.3274
1966.6026
8259.536
7576.5583
7010.1963
6535.2965
6129.2019
5780.8372
5475.842
5210.0428
4972.8095
4763.8247
4574.1735
4405.9373
4250.9528
4112.9282
3983.9681
3868.9584
3760.0258
3662.9483
3569.7536
3486.9159
3406.3117
3334.9664
3264.5919
3202.6517
3140.7025
3086.5528
3031.6263
2983.9985
2934.9885
2892.8714
2848.894
2811.4717
2771.8121
2738.419
2702.4931
2672.5806
2639.9065
2613.0183
2583.1947
2558.9485
2531.6386
2509.7113
2484.6304
2464.7475
2441.6529
2423.5795
2402.2634
2385.7973
2366.0803
2351.0469
2332.7733
2319.0208
2302.0551
2289.4511
2273.6742
2262.1028
2247.4099
2236.7691
2223.0674
2213.2673
2200.4745
2191.4355
2179.478
2171.1295
2159.9414
2152.2205
2141.7427
2134.5932
2124.7725
2118.144
2108.9322
2102.7796
2094.2461
2088.6169
2080.444
2074.9703
2066.9452
2061.6204
2053.7407
2048.5577
2040.8217
2035.7726
2028.1806
2023.2557
2015.8103
2010.9978
2003.7043
1998.9911
1991.8579
1987.2293
1980.272
1975.7138
1969.0016
1964.3592
1959.1278
1962.1106
8259.5381
7576.5555
7010.1991
6535.2932
6129.2053
5780.8333
5475.8459
5210.0385
4972.8138
4763.8202
4574.178
4405.9327
4250.9573
4112.9236
3983.9725
3868.9542
3760.0298
3662.9444
3569.7571
3486.9127
3406.3145
3334.9639
3264.5939
3202.6501
3140.7035
3086.5523
3031.6262
2983.9991
2934.9872
2892.8733
2848.8914
2811.4749
2771.8082
2738.4235
2702.4879
2672.5865
2639.8999
2613.0256
2583.1867
2558.9571
2531.6293
2509.7213
2484.6198
2464.7587
2441.6411
2423.5919
2402.2504
2385.8108
2366.0662
2351.0613
2332.7584
2319.0362
2302.0394
2289.4672
2273.6578
2262.1194
2247.393
2236.7861
2223.0502
2213.2846
2200.4572
2191.4527
2179.4608
2171.1465
2159.9246
2152.237
2141.7265
2134.609
2124.7572
2118.1588
2108.9181
2102.7931
2094.2337
2088.6288
2080.4327
2074.9808
2066.9356
2061.629
2053.7332
2048.5638
2040.8171
2035.7756
2028.1795
2023.2548
2015.8133
2010.9925
2003.712
1998.9805
1991.8721
1987.2097
1980.3005
1975.672
1969.0445
1964.4225
1958.4116
1960.2197
8259.5405
7576.5524
7010.2023
6535.2893
6129.2092
5780.8289
5475.8504
5210.0335
4972.8188
4763.8149
4574.1833
4405.9272
4250.9627
4112.9181
3983.9779
3868.9488
3760.0349
3662.9394
3569.7618
3486.9082
3406.3186
3334.9601
3264.5972
3202.6472
3140.7059
3086.5504
3031.6276
2983.9983
2934.9874
2892.8737
2848.8904
2811.4766
2771.8059
2738.4265
2702.4841
2672.5909
2639.8947
2613.0314
2583.1802
2558.9643
2531.6214
2509.7298
2484.6105
2464.7686
2441.6305
2423.603
2402.2386
2385.8231
2366.0533
2351.0748
2332.7444
2319.0507
2302.0244
2289.4826
2273.642
2262.1355
2247.3765
2236.8028
2223.0333
2213.3017
2200.4399
2191.4701
2179.4434
2171.1639
2159.9072
2152.2543
2141.7093
2134.626
2124.7403
2118.1753
2108.9018
2102.809
2094.2185
2088.6439
2080.4177
2074.9957
2066.9208
2061.6436
2053.7188
2048.578
2040.8029
2035.7896
2028.1653
2023.2691
2015.7985
2011.0081
2003.6953
1998.9988
1991.8513
1987.2341
1980.2696
1975.7146
1968.9772
1964.5468
1958.1265
1959.5074
8259.5431
7576.5489
7010.2059
6535.285
6129.2136
5780.8238
5475.8556
5210.0278
4972.8246
4763.8086
4574.1896
4405.9206
4250.9693
4112.9113
3983.9845
3868.9421
3760.0414
3662.9329
3569.768
3486.9021
3406.3243
3334.9546
3264.6023
3202.6425
3140.7101
3086.5466
3031.6308
2983.9955
2934.9896
2892.872
2848.8913
2811.4762
2771.8055
2738.4275
2702.4825
2672.5932
2639.8917
2613.035
2583.1757
2558.9694
2531.6155
2509.7363
2484.6033
2464.7765
2441.622
2423.6123
2402.2287
2385.8336
2366.0421
2351.0865
2332.732
2319.0635
2302.011
2289.4965
2273.6276
2262.1504
2247.3612
2236.8185
2223.0172
2213.3181
2200.4232
2191.4871
2179.4261
2171.1814
2159.8894
2152.2722
2141.6912
2134.6442
2124.722
2118.1937
2108.8833
2102.8276
2094.2003
2088.6626
2080.3984
2075.0155
2066.9003
2061.6648
2053.6966
2048.6012
2040.7785
2035.8155
2028.1376
2023.299
2015.7659
2011.0439
2003.6554
1999.0437
1991.7998
1987.2945
1980.1967
1975.805
1968.8652
1964.6721
1958.0225
1958.9016
8259.5461
7576.5449
7010.21
6535.2801
6129.2187
5780.818
5475.8616
5210.0212
4972.8314
4763.8014
4574.1969
4405.9128
4250.9771
4112.9033
3983.9925
3868.9339
3760.0495
3662.9248
3569.7759
3486.8942
3406.3319
3334.9472
3264.6093
3202.6357
3140.7165
3086.5405
3031.6364
2983.9904
2934.9941
2892.868
2848.8948
2811.4732
2771.8078
2738.4257
2702.4835
2672.5927
2639.8914
2613.0359
2583.1741
2558.9716
2531.6125
2509.74
2484.5989
2464.7815
2441.6162
2423.6186
2402.2216
2385.8414
2366.0337
2351.0956
2332.7223
2319.0738
2302
2289.508
2273.6155
2262.1631
2247.348
2236.8323
2223.0029
2213.3329
2200.4078
2191.5029
2179.4098
2171.1982
2159.8722
2152.2899
2141.6731
2134.6627
2124.7029
2118.2132
2108.8632
2102.8481
2094.1798
2088.684
2080.3758
2075.0392
2066.8751
2061.6915
2053.6682
2048.6315
2040.746
2035.8504
2028.0997
2023.3401
2015.721
2011.0931
2003.6011
1999.1039
1991.7326
1987.3697
1980.1123
1975.8986
1968.7641
1964.771
1957.9334
1958.5347
8259.5494
7576.5405
7010.2145
6535.2746
6129.2244
5780.8114
5475.8684
5210.0137
4972.8391
4763.793
4574.2055
4405.9038
4250.9862
4112.8937
3984.0021
3868.924
3760.0593
3662.9148
3569.7858
3486.8843
3406.3416
3334.9375
3264.6187
3202.6264
3140.7254
3086.5319
3031.6446
2983.9825
2935.0016
2892.8609
2848.9013
2811.4671
2771.8133
2738.4207
2702.4879
2672.5889
2639.8946
2613.0333
2583.1761
2558.9703
2531.6132
2509.7399
2484.5983
2464.7828
2441.6142
2423.6213
2402.2182
2385.8453
2366.029
2351.1009
2332.7163
2319.0805
2301.9926
2289.516
2273.6068
2262.1724
2247.338
2236.8429
2222.9915
2213.3449
2200.3952
2191.5162
2179.3958
2171.2128
2159.8569
2152.3059
2141.6563
2134.6802
2124.6847
2118.2323
2108.8434
2102.8687
2094.1588
2088.7062
2080.352
2075.0645
2066.8479
2061.7204
2053.637
2048.6648
2040.71
2035.8892
2028.0579
2023.3852
2015.672
2011.146
2003.5438
1999.1658
1991.6657
1987.4415
1980.0359
1975.9789
1968.6807
1964.8549
1957.8497
1958.3424
8259.5531
7576.5355
7010.2196
6535.2684
6129.2308
5780.804
5475.8761
5210.0052
4972.848
4763.7834
4574.2153
4405.8933
4250.9969
4112.8826
3984.0134
3868.9123
3760.0711
3662.9028
3569.7978
3486.8721
3406.3537
3334.9253
3264.6308
3202.6144
3140.7371
3086.5202
3031.656
2983.9713
2935.0124
2892.8504
2848.9114
2811.4574
2771.8226
2738.4118
2702.4963
2672.5809
2639.902
2613.0264
2583.1823
2558.9645
2531.6183
2509.7354
2484.6022
2464.7794
2441.6169
2423.6192
2402.2196
2385.8446
2366.0291
2351.1015
2332.715
2319.0824
2301.99
2289.5193
2273.6027
2262.1771
2247.3325
2236.8491
2222.9846
2213.3525
2200.3867
2191.5254
2179.3857
2171.2236
2159.8451
2152.3184
2141.6429
2134.6945
2124.6694
2118.2484
2108.8262
2102.8869
2094.14
2088.7263
2080.3303
2075.0878
2066.8228
2061.7474
2053.6079
2048.6961
2040.6763
2035.9252
2028.0191
2023.4267
2015.6277
2011.1931
2003.4939
1999.2183
1991.6108
1987.4985
1979.9771
1976.0392
1968.6177
1964.9231
1957.7678
1958.1047
8259.5571
7576.5301
7010.2252
6535.2616
6129.238
5780.7958
5475.8847
5209.9956
4972.8579
4763.7726
4574.2265
4405.8814
4251.0092
4112.8697
3984.0266
3868.8986
3760.085
3662.8884
3569.8123
3486.8573
3406.3686
3334.9103
3264.6458
3202.5993
3140.7522
3086.5051
3031.6708
2983.9565
2935.027
2892.8359
2848.9256
2811.4434
2771.8362
2738.3985
2702.5092
2672.5683
2639.9141
2613.0147
2583.1936
2558.9537
2531.6287
2509.7255
2484.6115
2464.7706
2441.6251
2423.6115
2402.2267
2385.8381
2366.0349
2351.0962
2332.7196
2319.0784
2301.9933
2289.5166
2273.6047
2262.1758
2247.333
2236.8493
2222.9836
2213.3542
2200.3842
2191.5288
2179.3815
2171.2287
2159.8392
2152.3252
2141.6351
2134.7032
2124.6598
2118.259
2108.8146
2102.8994
2094.1268
2088.7406
2080.3144
2075.105
2066.804
2061.7677
2053.5859
2048.7198
2040.6508
2035.9525
2027.9899
2023.4576
2015.595
2011.2272
2003.4584
1999.2547
1991.5739
1987.5353
1979.9409
1976.0741
1968.5843
1964.9543
1957.6933
1957.9194
8259.5615
7576.5241
7010.2313
6535.254
6129.2459
5780.7867
5475.8943
5209.9849
4972.8691
4763.7604
4574.2391
4405.8679
4251.0231
4112.8549
3984.0418
3868.8828
3760.1012
3662.8717
3569.8293
3486.8398
3406.3863
3334.8922
3264.664
3202.5808
3140.7707
3086.4864
3031.6896
2983.9376
2935.0457
2892.8171
2848.9442
2811.4248
2771.8546
2738.3802
2702.5272
2672.5505
2639.9316
2612.9973
2583.2106
2558.937
2531.6449
2509.7095
2484.627
2464.7555
2441.6397
2423.5973
2402.2404
2385.8248
2366.0476
2351.084
2332.7312
2319.0673
2302.0038
2289.5067
2273.6139
2262.1672
2247.3409
2236.842
2222.9902
2213.3483
2200.3893
2191.5243
2179.3852
2171.2258
2159.8413
2152.3239
2141.6356
2134.7035
2124.6585
2118.2611
2108.8117
2102.9032
2094.1223
2088.746
2080.3081
2075.1122
2066.7956
2061.777
2053.5754
2048.7313
2040.6381
2035.9661
2027.9752
2023.4732
2015.5786
2011.2443
2003.4408
1999.2723
1991.5566
1987.5517
1979.926
1976.0861
1968.5769
1964.9529
1957.6279
1957.7501
8259.5663
7576.5176
7010.238
6535.2458
6129.2545
5780.7767
5475.9048
5209.9731
4972.8815
4763.7469
4574.2533
4405.8527
4251.0389
4112.8382
3984.059
3868.8647
3760.1198
3662.8523
3569.849
3486.8194
3406.407
3334.8709
3264.6856
3202.5587
3140.793
3086.4637
3031.7124
2983.9145
2935.069
2892.7937
2848.9677
2811.4012
2771.8782
2738.3566
2702.5508
2672.5269
2639.955
2612.974
2583.2337
2558.914
2531.6677
2509.6869
2484.6493
2464.7334
2441.6615
2423.5758
2402.2615
2385.804
2366.068
2351.064
2332.7508
2319.0482
2302.0224
2289.4885
2273.6316
2262.15
2247.3576
2236.8258
2223.0057
2213.3333
2200.4037
2191.5105
2179.3984
2171.2131
2159.8533
2152.3125
2141.6463
2134.6934
2124.668
2118.2522
2108.8199
2102.8955
2094.1292
2088.7394
2080.3142
2075.1065
2066.8009
2061.7721
2053.5798
2048.7272
2040.6418
2035.9627
2027.9783
2023.4703
2015.5812
2011.2419
2003.4431
1999.2701
1991.5586
1987.5499
1979.9277
1976.0845
1968.5782
1964.952
1957.5793
1957.5835
8259.5715
7576.5106
7010.2453
6535.2369
6129.2639
5780.7657
5475.9164
5209.9601
4972.8951
4763.7319
4574.2689
4405.8358
4251.0565
4112.8195
3984.0784
3868.8443
3760.1408
3662.8303
3569.8716
3486.796
3406.431
3334.8462
3264.7107
3202.5329
3140.8192
3086.4369
3031.7395
2983.8869
2935.0968
2892.7653
2848.9962
2811.3724
2771.9072
2738.3273
2702.5801
2672.4974
2639.9846
2612.9443
2583.2634
2558.8842
2531.6973
2509.6573
2484.6788
2464.7039
2441.6908
2423.5466
2402.2905
2385.7752
2366.0966
2351.0355
2332.7789
2319.0203
2302.05
2289.4612
2273.6586
2262.1233
2247.3839
2236.7998
2223.0313
2213.3081
2200.4285
2191.486
2179.4224
2171.1894
2159.8766
2152.2896
2141.6688
2134.6712
2124.6898
2118.2307
2108.8411
2102.8747
2094.1492
2088.7193
2080.3345
2075.086
2066.8216
2061.7511
2053.6011
2048.7055
2040.6638
2035.9404
2028.001
2023.4472
2015.6045
2011.2183
2003.4667
1999.2467
1991.5815
1987.5281
1979.9474
1976.0683
1968.5882
1964.952
1957.6279
1957.3246
8259.577
7576.503
7010.2532
6535.2272
6129.2741
5780.7538
5475.9289
5209.946
4972.91
4763.7156
4574.2861
4405.8172
4251.0759
4112.7988
3984.0999
3868.8215
3760.1643
3662.8057
3569.897
3486.7696
3406.4581
3334.8181
3264.7394
3202.5033
3140.8494
3086.406
3031.771
2983.8547
2935.1295
2892.7321
2849.0298
2811.3382
2771.9417
2738.2923
2702.6154
2672.4617
2640.0205
2612.9081
2583.2997
2558.8476
2531.7341
2509.6203
2484.7158
2464.6668
2441.7279
2423.5093
2402.3277
2385.7379
2366.1338
2350.9984
2332.816
2318.9832
2302.0869
2289.4244
2273.6952
2262.0867
2247.4203
2236.7635
2223.0674
2213.2721
2200.4643
2191.4503
2179.4579
2171.154
2159.9118
2152.2545
2141.7038
2134.6363
2124.7246
2118.196
2108.8756
2102.8401
2094.1828
2088.685
2080.3695
2075.0501
2066.8583
2061.7135
2053.6397
2048.666
2040.7044
2035.8987
2028.0438
2023.4034
2015.6495
2011.1724
2003.5136
1999.199
1991.6296
1987.4799
1979.9949
1976.0224
1968.6303
1964.9172
1957.7289
1957.0474
8259.583
7576.495
7010.2616
6535.2169
6129.2851
5780.7411
5475.9425
5209.9307
4972.9262
4763.6978
4574.3048
4405.797
4251.097
4112.7762
3984.1235
3868.7966
3760.1902
3662.7785
3569.9251
3486.7403
3406.4883
3334.7868
3264.7716
3202.4701
3140.8834
3086.371
3031.8067
2983.8181
2935.1667
2892.694
2849.0685
2811.2987
2771.9816
2738.2517
2702.6565
2672.4201
2640.0626
2612.8655
2583.3427
2558.8042
2531.7778
2509.5762
2484.7601
2464.6221
2441.7728
2423.4642
2402.3729
2385.6924
2366.1794
2350.9526
2332.8618
2318.9372
2302.1329
2289.3782
2273.7414
2262.0404
2247.4666
2236.7171
2223.1138
2213.2256
2200.5108
2191.4038
2179.5045
2171.1074
2159.9585
2152.2077
2141.7506
2134.5894
2124.7716
2118.1488
2108.9229
2102.7927
2094.2291
2088.6376
2080.4182
2075.0002
2066.9096
2061.6609
2053.6939
2048.6102
2040.7619
2035.8396
2028.1048
2023.3405
2015.7144
2011.1053
2003.583
1999.1273
1991.7041
1987.4023
1980.0764
1975.9358
1968.7246
1964.8093
1957.8588
1956.7811
8259.5892
7576.4864
7010.2705
6535.2059
6129.2968
5780.7275
5475.9569
5209.9144
4972.9434
4763.6788
4574.3249
4405.7752
4251.1199
4112.7517
3984.149
3868.7695
3760.2184
3662.7488
3569.9558
3486.7081
3406.5214
3334.7523
3264.8071
3202.4333
3140.9211
3086.3321
3031.8464
2983.7773
2935.2084
2892.6514
2849.112
2811.2544
2772.0267
2738.2058
2702.703
2672.3727
2640.1105
2612.8168
2583.3919
2558.7544
2531.828
2509.5254
2484.8114
2464.5704
2441.8249
2423.4117
2402.4258
2385.6392
2366.2328
2350.8987
2332.9159
2318.8829
2302.1875
2289.3234
2273.7964
2261.9852
2247.522
2236.6615
2223.1696
2213.1696
2200.5669
2191.3474
2179.561
2171.0507
2160.0153
2152.1506
2141.8079
2134.5319
2124.8292
2118.091
2108.9809
2102.7345
2094.2859
2088.5794
2080.478
2074.9389
2066.9727
2061.5961
2053.7606
2048.5417
2040.8326
2035.7667
2028.18
2023.2628
2015.7949
2011.022
2003.6696
1999.0371
1991.7983
1987.3035
1980.1807
1975.8252
1968.8424
1964.6833
1957.9838
1956.5227
8259.5958
7576.4774
7010.2799
6535.1943
6129.3091
5780.7131
5475.9723
5209.8972
4972.9618
4763.6586
4574.3463
4405.752
4251.1443
4112.7256
3984.1764
3868.7404
3760.2487
3662.717
3569.9889
3486.6735
3406.5573
3334.715
3264.8455
3202.3935
3140.962
3086.2899
3031.8898
2983.7327
2935.2539
2892.6046
2849.1596
2811.2056
2772.0764
2738.1551
2702.7545
2672.3203
2640.1637
2612.7628
2583.4466
2558.6989
2531.8841
2509.4686
2484.8687
2464.5124
2441.8833
2423.3526
2402.4853
2385.5792
2366.2932
2350.8379
2332.977
2318.8213
2302.2493
2289.2611
2273.8589
2261.9224
2247.585
2236.5982
2223.2331
2213.1058
2200.6309
2191.2832
2179.6254
2170.986
2160.0801
2152.0856
2141.873
2134.4666
2124.8946
2118.0253
2109.0466
2102.6686
2094.3502
2088.5137
2080.5454
2074.87
2067.0434
2061.5236
2053.835
2048.4652
2040.9112
2035.6859
2028.2633
2023.177
2015.8834
2010.9305
2003.7643
1998.939
1991.9003
1987.1974
1980.2912
1975.7102
1968.9614
1964.5603
1958.102
1956.2704
8259.6027
7576.4679
7010.2898
6535.1821
6129.322
5780.698
5475.9883
5209.879
4972.981
4763.6373
4574.3687
4405.7276
4251.17
4112.698
3984.2053
3868.7097
3760.2807
3662.6832
3570.024
3486.6367
3406.5953
3334.6753
3264.8865
3202.351
3141.0057
3086.2446
3031.9361
2983.6849
2935.3028
2892.5544
2849.2109
2811.1531
2772.1299
2738.1004
2702.8101
2672.2636
2640.2212
2612.7043
2583.5058
2558.6387
2531.945
2509.4069
2484.931
2464.4493
2441.9469
2423.2883
2402.55
2385.5138
2366.359
2350.7716
2333.0437
2318.7542
2302.3168
2289.1933
2273.927
2261.8539
2247.6537
2236.5292
2223.3022
2213.0365
2200.7004
2191.2135
2179.6951
2170.9162
2160.15
2152.0156
2141.943
2134.3965
2124.9647
2117.9553
2109.1166
2102.5986
2094.4182
2088.4444
2080.6162
2074.7978
2067.1173
2061.4482
2053.9121
2048.3865
2040.9918
2035.6035
2028.3477
2023.0907
2015.972
2010.8398
2003.8573
1998.8436
1991.9983
1987.097
1980.3942
1975.6046
1969.0692
1964.4492
1958.21
1956.027
8259.6098
7576.4581
7010.3
6535.1695
6129.3354
5780.6824
5476.005
5209.8602
4973.0011
4763.6152
4574.3922
4405.7022
4251.1968
4112.6692
3984.2354
3868.6776
3760.3142
3662.6479
3570.0607
3486.5982
3406.6352
3334.6337
3264.9294
3202.3064
3141.0516
3086.1972
3031.9848
2983.6347
2935.3542
2892.5016
2849.2648
2811.0978
2772.1862
2738.0429
2702.8687
2672.2039
2640.2818
2612.6426
2583.5683
2558.5752
2532.0092
2509.3418
2484.9969
2464.3827
2442.0141
2423.2204
2402.6184
2385.4448
2366.4285
2350.7016
2333.114
2318.6834
2302.3878
2289.1219
2273.9986
2261.7821
2247.7257
2236.4571
2223.3745
2212.9641
2200.7727
2191.1411
2179.7674
2170.8439
2160.2221
2151.9436
2142.0148
2134.3249
2125.036
2117.8842
2109.1873
2102.5282
2094.4863
2088.3752
2080.6865
2074.7264
2067.1899
2061.3746
2053.987
2048.3105
2041.069
2035.5252
2028.4272
2023.0101
2016.0538
2010.757
2003.9412
1998.7588
1992.0839
1987.0108
1980.4809
1975.5177
1969.1558
1964.3621
1958.2902
1955.8221
8259.6172
7576.4481
7010.3105
6535.1565
6129.3492
5780.6663
5476.0222
5209.8408
4973.0217
4763.5924
4574.4163
4405.676
4251.2244
4112.6396
3984.2665
3868.6447
3760.3486
3662.6115
3570.0985
3486.5586
3406.6762
3334.5909
3264.9736
3202.2605
3141.0988
3086.1483
3032.035
2983.583
2935.4072
2892.4472
2849.3204
2811.0409
2772.2442
2737.9836
2702.929
2672.1424
2640.3442
2612.5791
2583.6327
2558.5099
2532.0753
2509.2748
2485.0645
2464.3143
2442.0831
2423.1508
2402.6886
2385.3741
2366.4995
2350.6301
2333.1859
2318.6112
2302.4602
2289.0493
2274.0713
2261.7092
2247.7985
2236.3842
2223.4472
2212.8914
2200.8452
2191.0688
2179.8395
2170.7721
2160.2935
2151.8725
2142.0854
2134.2548
2125.1056
2117.8152
2109.2557
2102.4604
2094.5516
2088.3093
2080.7532
2074.659
2067.2579
2061.306
2054.0562
2048.2408
2041.1392
2035.4546
2028.4983
2022.9388
2016.1252
2010.6856
2004.0125
1998.6879
1992.1543
1986.9413
1980.5492
1975.451
1969.2197
1964.3007
1958.3405
1955.6577
8259.6247
7576.4378
7010.3212
6535.1433
6129.3632
5780.6499
5476.0397
5209.8211
4973.0427
4763.5693
4574.4407
4405.6494
4251.2524
4112.6096
3984.2979
3868.6112
3760.3835
3662.5747
3570.1368
3486.5185
3406.7178
3334.5476
3265.0183
3202.2141
3141.1466
3086.099
3032.0856
2983.5309
2935.4605
2892.3924
2849.3764
2810.9836
2772.3026
2737.924
2702.9896
2672.0807
2640.4069
2612.5154
2583.6972
2558.4445
2532.1415
2509.2078
2485.1321
2464.246
2442.1519
2423.0814
2402.7584
2385.3038
2366.5701
2350.5592
2333.2569
2318.5399
2302.5316
2288.9778
2274.1427
2261.6378
2247.8698
2236.313
2223.5181
2212.8208
2200.9155
2190.9989
2179.9088
2170.7032
2160.3618
2151.8048
2142.1524
2134.1884
2125.1711
2117.7505
2109.3195
2102.3975
2094.6119
2088.2486
2080.8142
2074.5978
2067.3194
2061.2443
2054.118
2048.179
2041.201
2035.393
2028.5597
2022.8778
2016.1858
2010.6256
2004.0718
1998.6296
1992.2115
1986.8854
1980.6035
1975.3986
1969.2697
1964.2523
1958.3809
1955.5011
8259.6323
7576.4274
7010.332
6535.13
6129.3774
5780.6333
5476.0573
5209.8012
4973.0637
4763.546
4574.4653
4405.6227
4251.2804
4112.5795
3984.3294
3868.5777
3760.4184
3662.538
3570.1749
3486.4785
3406.7591
3334.5046
3265.0627
3202.1681
3141.1938
3086.0502
3032.1356
2983.4794
2935.5132
2892.3384
2849.4314
2810.9273
2772.3599
2737.8655
2703.049
2672.0202
2640.4681
2612.4532
2583.7601
2558.3807
2532.2058
2509.1428
2485.1976
2464.1798
2442.2185
2423.0143
2402.8257
2385.2362
2366.6379
2350.4911
2333.325
2318.4717
2302.5997
2288.9096
2274.2107
2261.57
2247.9372
2236.2458
2223.5849
2212.7544
2200.9813
2190.9336
2179.9735
2170.6391
2160.4251
2151.7423
2142.214
2134.1276
2125.2309
2117.6915
2109.3774
2102.3406
2094.6662
2088.1942
2080.8687
2074.5433
2067.3739
2061.19
2054.1722
2048.1251
2041.2546
2035.3397
2028.6125
2022.8256
2016.2374
2010.5748
2004.1219
1998.5804
1992.2597
1986.8382
1980.6496
1975.3534
1969.3134
1964.2085
1958.419
1955.349
8259.6399
7576.417
7010.3429
6535.1166
6129.3916
5780.6168
5476.0748
5209.7814
4973.0847
4763.5229
4574.4897
4405.5963
4251.3081
4112.5498
3984.3605
3868.5448
3760.4526
3662.5019
3570.2122
3486.4395
3406.7994
3334.4626
3265.1058
3202.1234
3141.2397
3086.0029
3032.184
2983.4297
2935.5639
2892.2864
2849.4843
2810.8732
2772.4148
2737.8096
2703.1056
2671.9627
2640.5263
2612.3942
2583.8197
2558.3204
2532.2666
2509.0815
2485.2593
2464.1177
2442.2808
2422.9517
2402.8885
2385.1731
2366.701
2350.4279
2333.3881
2318.4086
2302.6626
2288.8469
2274.2731
2261.5078
2247.9989
2236.1845
2223.6457
2212.694
2201.041
2190.8745
2180.0319
2170.5815
2160.4819
2151.6862
2142.2692
2134.0733
2125.2843
2117.6391
2109.4288
2102.2902
2094.7142
2088.1462
2080.9167
2074.4954
2067.4216
2061.1424
2054.2196
2048.078
2041.3014
2035.2933