/*--------------------------------*- C++ -*----------------------------------*\
  =========                 |
  \\      /  F ield         | OpenFOAM: The Open Source CFD Toolbox
   \\    /   O peration     | Website:  https://openfoam.org
    \\  /    A nd           | Version:  6
     \\/     M anipulation  |
\*---------------------------------------------------------------------------*/
FoamFile
{
    version     2.0;
    format      ascii;
    class       volScalarField;
    location    "3600";
    object      p;
}
// * * * * * * * * * * * * * * * * * * * * * * * * * * * * * * * * * * * * * //

dimensions      [0 2 -2 0 0 0 0];

internalField   nonuniform List<scalar> 
209825
(
19.910698
19.915156
19.926188
19.942826
19.964142
19.989776
20.019578
20.053374
20.090952
20.132121
20.176719
20.224607
20.275662
20.32977
20.386829
20.446751
20.509456
20.574872
20.642937
20.713596
20.786802
20.862512
20.940691
21.021308
21.104339
21.189763
21.277566
21.367737
21.460271
21.555163
21.652418
21.752042
21.854043
21.958438
22.065243
22.174482
22.28618
22.400369
22.517081
22.636357
22.758239
22.882776
23.01002
23.140028
23.272864
23.408595
23.547297
23.689048
23.833937
23.982055
24.133505
24.288396
24.446844
24.608976
24.774929
24.944851
25.118899
25.297245
25.480075
25.667588
25.860002
26.05755
26.260488
26.469092
26.683663
26.904529
27.132048
27.366611
27.60865
27.858632
28.117087
28.384556
28.658159
28.940885
29.24073
29.559848
29.900723
30.266117
30.659292
31.08421
31.545706
32.049736
32.603736
33.217152
33.90215
34.674908
35.556898
36.579298
37.78294
39.242925
41.034345
43.436774
46.465161
52.035313
58.268619
90.930787
19.910698
19.915156
19.926188
19.942826
19.964142
19.989776
20.019578
20.053374
20.090952
20.132121
20.176719
20.224607
20.275662
20.32977
20.386829
20.446751
20.509455
20.574872
20.642937
20.713596
20.786802
20.862512
20.940691
21.021308
21.104339
21.189763
21.277566
21.367737
21.46027
21.555163
21.652418
21.752041
21.854043
21.958438
22.065243
22.174482
22.28618
22.400368
22.517081
22.636357
22.758239
22.882776
23.010019
23.140028
23.272863
23.408595
23.547296
23.689048
23.833936
23.982055
24.133505
24.288395
24.446843
24.608975
24.774929
24.94485
25.118898
25.297245
25.480074
25.667587
25.860001
26.057549
26.260487
26.46909
26.683661
26.904527
27.132046
27.366609
27.608648
27.858629
28.117084
28.384553
28.658156
28.940881
29.240726
29.559843
29.900717
30.26611
30.659285
31.084201
31.545695
32.049724
32.603722
33.217134
33.902128
34.674881
35.556863
36.57925
37.782876
39.242828
41.034208
43.436489
46.464774
52.032863
58.247478
90.377879
19.910698
19.915155
19.926188
19.942826
19.964142
19.989776
20.019578
20.053374
20.090952
20.132121
20.176719
20.224607
20.275662
20.32977
20.386829
20.446751
20.509455
20.574871
20.642937
20.713596
20.786802
20.862512
20.940691
21.021308
21.104338
21.189763
21.277566
21.367737
21.46027
21.555163
21.652418
21.752041
21.854043
21.958437
22.065243
22.174482
22.28618
22.400368
22.517081
22.636356
22.758238
22.882775
23.010019
23.140027
23.272863
23.408594
23.547296
23.689047
23.833935
23.982054
24.133504
24.288394
24.446842
24.608974
24.774927
24.944849
25.118897
25.297243
25.480072
25.667586
25.859999
26.057547
26.260484
26.469088
26.683658
26.904524
27.132042
27.366605
27.608643
27.858624
28.117079
28.384547
28.658149
28.940873
29.240717
29.559833
29.900706
30.266097
30.65927
31.084185
31.545676
32.049701
32.603694
33.217101
33.902087
34.674828
35.556795
36.57916
37.782753
39.242646
41.033943
43.435984
46.463997
52.028793
58.226048
89.65774
19.910698
19.915155
19.926188
19.942826
19.964142
19.989775
20.019578
20.053374
20.090952
20.132121
20.176719
20.224607
20.275662
20.32977
20.386829
20.446751
20.509455
20.574871
20.642937
20.713596
20.786802
20.862512
20.94069
21.021308
21.104338
21.189763
21.277566
21.367737
21.46027
21.555163
21.652418
21.752041
21.854042
21.958437
22.065242
22.174481
22.286179
22.400368
22.51708
22.636356
22.758238
22.882774
23.010018
23.140026
23.272862
23.408593
23.547295
23.689046
23.833934
23.982053
24.133502
24.288393
24.44684
24.608972
24.774926
24.944847
25.118894
25.29724
25.48007
25.667583
25.859995
26.057543
26.26048
26.469083
26.683653
26.904518
27.132036
27.366599
27.608636
27.858617
28.11707
28.384537
28.658138
28.940861
29.240704
29.559818
29.900689
30.266078
30.659248
31.084159
31.545645
32.049665
32.603651
33.217048
33.902022
34.674747
35.55669
36.579021
37.782562
39.242366
41.033531
43.435208
46.462823
52.022988
58.207106
88.907137
19.910698
19.915155
19.926188
19.942826
19.964142
19.989775
20.019578
20.053374
20.090952
20.132121
20.176718
20.224607
20.275662
20.329769
20.386829
20.446751
20.509455
20.574871
20.642936
20.713596
20.786801
20.862511
20.94069
21.021307
21.104338
21.189762
21.277565
21.367737
21.46027
21.555162
21.652417
21.75204
21.854042
21.958436
22.065242
22.174481
22.286179
22.400367
22.517079
22.636355
22.758237
22.882774
23.010017
23.140025
23.272861
23.408592
23.547293
23.689045
23.833933
23.982051
24.133501
24.28839
24.446838
24.60897
24.774923
24.944844
25.118891
25.297237
25.480066
25.667579
25.859991
26.057538
26.260475
26.469077
26.683647
26.904511
27.132029
27.36659
27.608627
27.858606
28.117058
28.384524
28.658123
28.940845
29.240685
29.559798
29.900665
30.266051
30.659217
31.084123
31.545603
32.049615
32.603591
33.216976
33.901933
34.674635
35.556546
36.578829
37.782301
39.241981
41.032967
43.434146
46.461236
52.015438
58.188272
88.155066
19.910697
19.915155
19.926188
19.942826
19.964142
19.989775
20.019578
20.053374
20.090952
20.13212
20.176718
20.224607
20.275662
20.329769
20.386829
20.446751
20.509455
20.574871
20.642936
20.713596
20.786801
20.862511
20.94069
21.021307
21.104338
21.189762
21.277565
21.367736
21.460269
21.555162
21.652417
21.75204
21.854041
21.958436
22.065241
22.17448
22.286178
22.400366
22.517078
22.636354
22.758236
22.882772
23.010016
23.140024
23.272859
23.408591
23.547292
23.689043
23.833931
23.982049
24.133498
24.288388
24.446835
24.608967
24.774919
24.94484
25.118887
25.297233
25.480061
25.667573
25.859985
26.057532
26.260468
26.46907
26.683639
26.904502
27.132019
27.366579
27.608614
27.858592
28.117043
28.384507
28.658104
28.940824
29.240662
29.559771
29.900635
30.266017
30.659178
31.084077
31.54555
32.049552
32.603515
33.216884
33.901819
34.674491
35.556362
36.578584
37.781966
39.241488
41.032244
43.432784
46.459212
52.006037
58.167108
87.404798
19.910697
19.915155
19.926188
19.942826
19.964142
19.989775
20.019578
20.053373
20.090952
20.13212
20.176718
20.224607
20.275661
20.329769
20.386829
20.44675
20.509455
20.574871
20.642936
20.713595
20.786801
20.862511
20.940689
21.021306
21.104337
21.189762
21.277565
21.367736
21.460269
21.555161
21.652416
21.752039
21.854041
21.958435
22.06524
22.174479
22.286177
22.400365
22.517077
22.636353
22.758234
22.882771
23.010014
23.140022
23.272857
23.408589
23.547289
23.68904
23.833928
23.982046
24.133495
24.288385
24.446832
24.608963
24.774915
24.944835
25.118882
25.297227
25.480055
25.667567
25.859978
26.057524
26.26046
26.469061
26.683628
26.904491
27.132006
27.366565
27.608599
27.858576
28.117024
28.384487
28.658081
28.940798
29.240633
29.559739
29.900598
30.265974
30.659129
31.084021
31.545484
32.049473
32.603422
33.21677
33.901679
34.674314
35.556134
36.578281
37.781552
39.24088
41.031352
43.431108
46.456723
51.994655
58.142543
86.65624
19.910697
19.915155
19.926188
19.942826
19.964141
19.989775
20.019578
20.053373
20.090951
20.13212
20.176718
20.224606
20.275661
20.329769
20.386828
20.44675
20.509454
20.57487
20.642935
20.713595
20.7868
20.86251
20.940689
21.021306
21.104337
21.189761
21.277564
21.367735
21.460268
21.555161
21.652415
21.752038
21.85404
21.958434
22.065239
22.174478
22.286176
22.400363
22.517076
22.636351
22.758233
22.882769
23.010012
23.14002
23.272855
23.408586
23.547287
23.689038
23.833925
23.982043
24.133492
24.288381
24.446827
24.608959
24.77491
24.94483
25.118876
25.297221
25.480048
25.667559
25.85997
26.057515
26.260449
26.46905
26.683616
26.904477
27.131991
27.366549
27.608581
27.858555
28.117002
28.384462
28.658053
28.940767
29.240598
29.559699
29.900554
30.265924
30.659071
31.083953
31.545404
32.04938
32.603309
33.216634
33.90151
34.674102
35.555861
36.577918
37.781057
39.240151
41.030284
43.429102
46.453739
51.981207
58.114338
85.9086
19.910697
19.915155
19.926187
19.942825
19.964141
19.989775
20.019577
20.053373
20.090951
20.13212
20.176718
20.224606
20.275661
20.329768
20.386828
20.44675
20.509454
20.57487
20.642935
20.713594
20.7868
20.86251
20.940688
21.021305
21.104336
21.18976
21.277563
21.367734
21.460267
21.55516
21.652414
21.752037
21.854039
21.958433
22.065238
22.174476
22.286174
22.400362
22.517074
22.636349
22.758231
22.882767
23.01001
23.140018
23.272853
23.408583
23.547284
23.689034
23.833921
23.982039
24.133487
24.288376
24.446822
24.608953
24.774904
24.944824
25.118869
25.297213
25.48004
25.66755
25.85996
26.057504
26.260438
26.469036
26.683602
26.904462
27.131974
27.36653
27.60856
27.858532
28.116976
28.384432
28.658021
28.94073
29.240558
29.559653
29.900501
30.265864
30.659002
31.083873
31.545311
32.049269
32.603177
33.216473
33.901313
34.673853
35.555541
36.577491
37.780475
39.239297
41.029031
43.426751
46.450232
51.965636
58.08247
85.161335
19.910697
19.915154
19.926187
19.942825
19.964141
19.989774
20.019577
20.053373
20.090951
20.132119
20.176717
20.224606
20.27566
20.329768
20.386828
20.446749
20.509453
20.574869
20.642934
20.713594
20.786799
20.862509
20.940688
21.021305
21.104335
21.189759
21.277562
21.367733
21.460266
21.555159
21.652413
21.752036
21.854037
21.958431
22.065236
22.174475
22.286173
22.40036
22.517072
22.636347
22.758229
22.882765
23.010007
23.140015
23.27285
23.40858
23.54728
23.68903
23.833917
23.982034
24.133482
24.288371
24.446817
24.608947
24.774898
24.944816
25.118861
25.297204
25.48003
25.66754
25.859948
26.057492
26.260424
26.469021
26.683585
26.904443
27.131954
27.366507
27.608535
27.858504
28.116945
28.384399
28.657983
28.940688
29.24051
29.5596
29.900441
30.265795
30.658923
31.083781
31.545204
32.049142
32.603025
33.216288
33.901084
34.673566
35.555171
36.576999
37.779803
39.23831
41.027583
43.424039
46.446174
51.947899
58.046893
84.414418
19.910696
19.915154
19.926187
19.942825
19.964141
19.989774
20.019577
20.053372
20.090951
20.132119
20.176717
20.224605
20.27566
20.329768
20.386827
20.446749
20.509453
20.574869
20.642934
20.713593
20.786799
20.862508
20.940687
21.021304
21.104334
21.189759
21.277561
21.367732
21.460265
21.555157
21.652412
21.752035
21.854036
21.95843
22.065235
22.174473
22.286171
22.400358
22.51707
22.636345
22.758226
22.882762
23.010004
23.140012
23.272846
23.408576
23.547276
23.689026
23.833912
23.982029
24.133477
24.288365
24.44681
24.60894
24.77489
24.944808
25.118852
25.297194
25.48002
25.667528
25.859935
26.057477
26.260408
26.469004
26.683566
26.904422
27.131931
27.366482
27.608507
27.858473
28.116911
28.38436
28.65794
28.94064
29.240457
29.559539
29.900372
30.265716
30.658832
31.083676
31.545081
32.048997
32.602851
33.216077
33.900824
34.673237
35.554748
36.576437
37.779036
39.237183
41.025931
43.420948
46.441534
51.927954
58.007515
83.668095
19.910696
19.915154
19.926186
19.942824
19.96414
19.989774
20.019576
20.053372
20.09095
20.132119
20.176716
20.224605
20.27566
20.329767
20.386826
20.446748
20.509452
20.574868
20.642933
20.713592
20.786798
20.862508
20.940686
21.021303
21.104333
21.189758
21.27756
21.367731
21.460264
21.555156
21.65241
21.752033
21.854034
21.958428
22.065233
22.174471
22.286168
22.400356
22.517067
22.636342
22.758223
22.882759
23.010001
23.140008
23.272842
23.408572
23.547272
23.689021
23.833907
23.982023
24.133471
24.288358
24.446803
24.608932
24.774881
24.944798
25.118842
25.297183
25.480007
25.667514
25.859921
26.057461
26.26039
26.468985
26.683545
26.904399
27.131905
27.366453
27.608475
27.858438
28.116872
28.384316
28.657891
28.940586
29.240396
29.559471
29.900294
30.265628
30.65873
31.083558
31.544942
32.048833
32.602654
33.215838
33.900529
34.672866
35.554271
36.575802
37.77817
39.235911
41.024064
43.417461
46.436282
51.905756
57.964232
82.922681
19.910695
19.915154
19.926186
19.942824
19.96414
19.989773
20.019576
20.053371
20.09095
20.132118
20.176716
20.224604
20.275659
20.329766
20.386826
20.446748
20.509452
20.574867
20.642932
20.713592
20.786797
20.862507
20.940685
21.021302
21.104332
21.189756
21.277559
21.36773
21.460262
21.555155
21.652409
21.752031
21.854032
21.958426
22.065231
22.174469
22.286166
22.400353
22.517064
22.636339
22.75822
22.882755
23.009997
23.140004
23.272838
23.408567
23.547266
23.689015
23.833901
23.982017
24.133463
24.28835
24.446794
24.608923
24.774871
24.944788
25.11883
25.29717
25.479993
25.667499
25.859904
26.057443
26.26037
26.468963
26.683521
26.904372
27.131875
27.366421
27.608439
27.858398
28.116828
28.384268
28.657836
28.940525
29.240328
29.559394
29.900207
30.265528
30.658615
31.083425
31.544786
32.048649
32.602434
33.215571
33.900199
34.672451
35.553736
36.57509
37.777199
39.234486
41.021973
43.41356
46.430386
51.881261
57.916934
82.178477
19.910695
19.915153
19.926185
19.942824
19.964139
19.989773
20.019575
20.053371
20.090949
20.132118
20.176715
20.224604
20.275658
20.329766
20.386825
20.446747
20.509451
20.574867
20.642932
20.713591
20.786796
20.862506
20.940684
21.021301
21.104331
21.189755
21.277558
21.367728
21.460261
21.555153
21.652407
21.752029
21.85403
21.958424
22.065228
22.174466
22.286163
22.40035
22.517061
22.636336
22.758216
22.882751
23.009993
23.139999
23.272833
23.408562
23.547261
23.689009
23.833894
23.982009
24.133456
24.288342
24.446785
24.608913
24.77486
24.944776
25.118817
25.297156
25.479978
25.667482
25.859886
26.057423
26.260348
26.468938
26.683494
26.904343
27.131843
27.366385
27.6084
27.858354
28.116779
28.384213
28.657775
28.940457
29.240252
29.559308
29.90011
30.265417
30.658488
31.083277
31.544613
32.048444
32.602189
33.215273
33.899831
34.671988
35.55314
36.574299
37.776118
39.232901
41.019646
43.409227
46.423813
51.854425
57.865514
81.435771
19.910695
19.915153
19.926185
19.942823
19.964139
19.989772
20.019575
20.05337
20.090949
20.132117
20.176715
20.224603
20.275658
20.329765
20.386824
20.446746
20.50945
20.574866
20.642931
20.71359
20.786795
20.862505
20.940683
21.0213
21.10433
21.189754
21.277556
21.367727
21.460259
21.555151
21.652405
21.752027
21.854028
21.958421
22.065226
22.174463
22.28616
22.400347
22.517058
22.636332
22.758212
22.882747
23.009988
23.139994
23.272827
23.408556
23.547254
23.689002
23.833887
23.982001
24.133447
24.288332
24.446775
24.608901
24.774848
24.944763
25.118803
25.297141
25.479961
25.667464
25.859865
26.0574
26.260324
26.468912
26.683464
26.90431
27.131807
27.366345
27.608356
27.858306
28.116725
28.384153
28.657708
28.940382
29.240168
29.559214
29.900002
30.265294
30.658347
31.083113
31.544422
32.048217
32.601917
33.214943
33.899424
34.671476
35.552481
36.573423
37.774923
39.231148
41.017073
43.404444
46.416528
51.825206
57.809868
80.694846
19.910694
19.915152
19.926184
19.942823
19.964138
19.989772
20.019574
20.05337
20.090948
20.132116
20.176714
20.224602
20.275657
20.329764
20.386824
20.446745
20.509449
20.574865
20.64293
20.713589
20.786794
20.862503
20.940682
21.021298
21.104328
21.189752
21.277554
21.367725
21.460257
21.555149
21.652403
21.752025
21.854025
21.958419
22.065223
22.17446
22.286157
22.400343
22.517054
22.636328
22.758208
22.882742
23.009983
23.139989
23.272821
23.40855
23.547247
23.688995
23.833879
23.981993
24.133437
24.288322
24.446764
24.608889
24.774835
24.944748
25.118787
25.297123
25.479942
25.667443
25.859843
26.057376
26.260297
26.468882
26.683432
26.904274
27.131767
27.366302
27.608307
27.858252
28.116665
28.384087
28.657634
28.9403
29.240076
29.559109
29.899884
30.265159
30.658191
31.082933
31.544211
32.047967
32.601619
33.21458
33.898977
34.670912
35.551756
36.572459
37.773608
39.22922
41.014241
43.39919
46.408498
51.793562
57.749893
79.955977
19.910693
19.915152
19.926184
19.942822
19.964138
19.989771
20.019574
20.053369
20.090947
20.132116
20.176713
20.224602
20.275656
20.329763
20.386823
20.446744
20.509448
20.574864
20.642929
20.713588
20.786793
20.862502
20.94068
21.021297
21.104327
21.18975
21.277553
21.367723
21.460255
21.555147
21.652401
21.752022
21.854023
21.958416
22.06522
22.174457
22.286153
22.400339
22.51705
22.636323
22.758203
22.882737
23.009977
23.139983
23.272815
23.408542
23.54724
23.688987
23.83387
23.981983
24.133427
24.288311
24.446751
24.608876
24.77482
24.944732
25.11877
25.297105
25.479921
25.66742
25.859818
26.057349
26.260267
26.468849
26.683396
26.904235
27.131724
27.366254
27.608254
27.858193
28.1166
28.384014
28.657553
28.940209
29.239975
29.558995
29.899754
30.265011
30.658021
31.082736
31.543979
32.047694
32.601291
33.214183
33.898486
34.670295
35.550962
36.571403
37.772166
39.227108
41.011138
43.393446
46.399684
51.759452
57.685495
79.219435
19.910693
19.915151
19.926183
19.942821
19.964137
19.98977
20.019573
20.053368
20.090946
20.132115
20.176712
20.224601
20.275655
20.329763
20.386822
20.446743
20.509447
20.574863
20.642927
20.713586
20.786791
20.862501
20.940679
21.021295
21.104325
21.189748
21.277551
21.367721
21.460253
21.555144
21.652398
21.75202
21.85402
21.958413
22.065216
22.174453
22.286149
22.400335
22.517045
22.636318
22.758198
22.882731
23.009971
23.139976
23.272808
23.408535
23.547231
23.688978
23.83386
23.981972
24.133415
24.288298
24.446738
24.608861
24.774804
24.944715
25.118751
25.297084
25.479899
25.667396
25.859791
26.057319
26.260235
26.468814
26.683357
26.904192
27.131677
27.366201
27.608196
27.858129
28.116528
28.383935
28.657464
28.940111
29.239864
29.55887
29.899613
30.264849
30.657835
31.08252
31.543727
32.047395
32.600934
33.213749
33.897951
34.669621
35.550094
36.57025
37.770593
39.224804
41.007752
43.387191
46.390048
51.722834
57.616588
78.485482
19.910692
19.915151
19.926182
19.942821
19.964136
19.98977
20.019572
20.053368
20.090946
20.132114
20.176712
20.2246
20.275654
20.329762
20.386821
20.446742
20.509446
20.574861
20.642926
20.713585
20.78679
20.862499
20.940677
21.021293
21.104323
21.189746
21.277548
21.367718
21.46025
21.555142
21.652395
21.752017
21.854016
21.958409
22.065213
22.174449
22.286145
22.400331
22.51704
22.636313
22.758192
22.882725
23.009965
23.139969
23.2728
23.408526
23.547222
23.688968
23.833849
23.981961
24.133403
24.288285
24.446723
24.608845
24.774787
24.944696
25.11873
25.297062
25.479874
25.667369
25.859762
26.057287
26.2602
26.468775
26.683315
26.904145
27.131625
27.366145
27.608133
27.858059
28.116451
28.383849
28.657367
28.940003
29.239744
29.558735
29.899458
30.264674
30.657633
31.082285
31.543452
32.047071
32.600545
33.213277
33.897368
34.668887
35.549151
36.568996
37.768883
39.222299
41.004071
43.380404
46.379551
51.683666
57.543091
77.754378
19.910691
19.91515
19.926181
19.94282
19.964136
19.989769
20.019571
20.053367
20.090945
20.132113
20.176711
20.224599
20.275653
20.32976
20.38682
20.446741
20.509444
20.57486
20.642925
20.713583
20.786788
20.862497
20.940675
21.021291
21.104321
21.189744
21.277546
21.367716
21.460247
21.555139
21.652392
21.752013
21.854013
21.958405
22.065209
22.174445
22.28614
22.400326
22.517035
22.636307
22.758186
22.882718
23.009957
23.139961
23.272791
23.408517
23.547212
23.688957
23.833838
23.981948
24.133389
24.28827
24.446707
24.608828
24.774768
24.944675
25.118708
25.297037
25.479848
25.66734
25.85973
26.057253
26.260162
26.468734
26.683269
26.904095
27.131569
27.366083
27.608065
27.857983
28.116367
28.383755
28.657263
28.939887
29.239613
29.558587
29.899291
30.264483
30.657413
31.082031
31.543155
32.046718
32.600123
33.212765
33.896736
34.668092
35.548128
36.567636
37.767028
39.219584
41.000079
43.373064
46.368153
51.641909
57.464926
77.026381
19.91069
19.915149
19.926181
19.942819
19.964135
19.989768
20.01957
20.053366
20.090944
20.132112
20.17671
20.224598
20.275652
20.329759
20.386818
20.446739
20.509443
20.574858
20.642923
20.713582
20.786786
20.862495
20.940673
21.021289
21.104319
21.189742
21.277543
21.367713
21.460245
21.555136
21.652389
21.75201
21.854009
21.958401
22.065204
22.17444
22.286135
22.40032
22.517029
22.636301
22.758179
22.882711
23.00995
23.139952
23.272782
23.408507
23.547202
23.688946
23.833825
23.981935
24.133375
24.288254
24.44669
24.608809
24.774748
24.944653
25.118684
25.297011
25.479819
25.667309
25.859696
26.057215
26.260121
26.468688
26.683219
26.90404
27.131509
27.366016
27.607991
27.857902
28.116276
28.383654
28.65715
28.939761
29.239472
29.558428
29.899111
30.264276
30.657176
31.081756
31.542832
32.046337
32.599667
33.212211
33.896053
34.667232
35.547021
36.566166
37.765022
39.216651
40.995764
43.365147
46.355811
51.597525
57.382019
76.301745
19.91069
19.915148
19.92618
19.942818
19.964134
19.989767
20.01957
20.053365
20.090943
20.132111
20.176708
20.224597
20.275651
20.329758
20.386817
20.446738
20.509442
20.574857
20.642921
20.71358
20.786784
20.862493
20.940671
21.021287
21.104316
21.189739
21.277541
21.36771
21.460241
21.555132
21.652385
21.752006
21.854005
21.958397
22.065199
22.174435
22.28613
22.400314
22.517023
22.636294
22.758171
22.882703
23.009941
23.139943
23.272772
23.408497
23.54719
23.688933
23.833812
23.98192
24.133359
24.288237
24.446671
24.608789
24.774726
24.944629
25.118658
25.296983
25.479788
25.667275
25.859659
26.057175
26.260076
26.468639
26.683165
26.903981
27.131444
27.365944
27.607911
27.857813
28.116177
28.383545
28.657028
28.939625
29.23932
29.558256
29.898916
30.264054
30.65692
31.081459
31.542485
32.045926
32.599174
33.211613
33.895315
34.666304
35.545828
36.564581
37.762859
39.213489
40.991111
43.356631
46.342483
51.550475
57.2943
75.580722
19.910689
19.915148
19.926179
19.942817
19.964133
19.989766
20.019568
20.053364
20.090942
20.13211
20.176707
20.224595
20.27565
20.329757
20.386815
20.446737
20.50944
20.574855
20.642919
20.713578
20.786782
20.862491
20.940669
21.021284
21.104314
21.189736
21.277538
21.367707
21.460238
21.555129
21.652381
21.752002
21.854001
21.958392
22.065194
22.17443
22.286124
22.400308
22.517016
22.636287
22.758164
22.882695
23.009932
23.139933
23.272762
23.408485
23.547178
23.68892
23.833797
23.981905
24.133342
24.288218
24.446651
24.608767
24.774702
24.944604
25.11863
25.296952
25.479755
25.667239
25.859619
26.057131
26.260028
26.468587
26.683108
26.903917
27.131373
27.365866
27.607826
27.857718
28.116072
28.383427
28.656896
28.939478
29.239156
29.558071
29.898706
30.263814
30.656644
31.081139
31.542111
32.045483
32.598645
33.21097
33.894522
34.665305
35.544543
36.562875
37.760531
39.210088
40.986106
43.347493
46.328125
51.500725
57.201706
74.863559
19.910688
19.915147
19.926178
19.942816
19.964132
19.989765
20.019567
20.053363
20.090941
20.132109
20.176706
20.224594
20.275648
20.329755
20.386814
20.446735
20.509438
20.574853
20.642918
20.713576
20.78678
20.862489
20.940666
21.021282
21.104311
21.189733
21.277535
21.367704
21.460234
21.555125
21.652377
21.751997
21.853996
21.958387
22.065189
22.174424
22.286118
22.400301
22.517009
22.636279
22.758155
22.882685
23.009922
23.139923
23.27275
23.408473
23.547165
23.688905
23.833782
23.981888
24.133324
24.288199
24.44663
24.608744
24.774677
24.944576
25.1186
25.296919
25.479719
25.667199
25.859576
26.057084
26.259977
26.46853
26.683045
26.903849
27.131298
27.365783
27.607733
27.857616
28.115958
28.383301
28.656755
28.939321
29.23898
29.557872
29.89848
30.263556
30.656348
31.080796
31.541709
32.045008
32.598075
33.210279
33.893669
34.664232
35.543163
36.561042
37.758031
39.206437
40.980731
43.337708
46.312693
51.448238
57.104175
74.150497
19.910686
19.915146
19.926176
19.942815
19.964131
19.989764
20.019566
20.053361
20.090939
20.132107
20.176705
20.224593
20.275647
20.329753
20.386812
20.446733
20.509436
20.574851
20.642915
20.713574
20.786778
20.862486
20.940664
21.021279
21.104308
21.18973
21.277531
21.3677
21.46023
21.555121
21.652373
21.751992
21.853991
21.958381
22.065183
22.174417
22.286111
22.400294
22.517001
22.63627
22.758146
22.882676
23.009912
23.139912
23.272738
23.40846
23.54715
23.68889
23.833765
23.98187
24.133304
24.288177
24.446607
24.608719
24.77465
24.944546
25.118567
25.296884
25.479681
25.667157
25.85953
26.057034
26.259922
26.46847
26.682979
26.903775
27.131217
27.365694
27.607634
27.857506
28.115836
28.383165
28.656603
28.939152
29.238791
29.557659
29.898238
30.26328
30.656031
31.080427
31.541277
32.044498
32.597465
33.209538
33.892755
34.663082
35.541684
36.559078
37.755352
39.202527
40.974973
43.327251
46.29614
51.392981
57.001654
73.441773
19.910685
19.915145
19.926175
19.942814
19.96413
19.989763
20.019565
20.05336
20.090938
20.132106
20.176703
20.224591
20.275645
20.329752
20.38681
20.446731
20.509434
20.574849
20.642913
20.713571
20.786775
20.862484
20.940661
21.021276
21.104305
21.189727
21.277527
21.367696
21.460226
21.555116
21.652368
21.751987
21.853985
21.958376
22.065177
22.174411
22.286104
22.400286
22.516992
22.636261
22.758136
22.882665
23.0099
23.139899
23.272725
23.408446
23.547135
23.688873
23.833747
23.98185
24.133283
24.288155
24.446582
24.608692
24.774621
24.944515
25.118533
25.296846
25.479639
25.667112
25.859481
26.05698
26.259862
26.468405
26.682907
26.903697
27.13113
27.365598
27.607528
27.857389
28.115706
28.38302
28.656441
28.938971
29.238589
29.557431
29.897979
30.262985
30.655691
31.080033
31.540816
32.043952
32.596812
33.208745
33.891777
34.661851
35.540101
36.556977
37.752485
39.198346
40.968813
43.316098
46.278421
51.334922
56.894093
72.73762
19.910684
19.915144
19.926174
19.942812
19.964128
19.989761
20.019564
20.053359
20.090936
20.132104
20.176701
20.224589
20.275643
20.32975
20.386809
20.446729
20.509432
20.574847
20.642911
20.713569
20.786773
20.862481
20.940658
21.021273
21.104301
21.189723
21.277524
21.367692
21.460222
21.555111
21.652363
21.751982
21.853979
21.958369
22.06517
22.174403
22.286096
22.400278
22.516983
22.636252
22.758126
22.882654
23.009888
23.139886
23.272711
23.40843
23.547119
23.688856
23.833728
23.98183
24.133261
24.28813
24.446556
24.608663
24.774589
24.944481
25.118496
25.296806
25.479595
25.667064
25.859429
26.056922
26.259799
26.468336
26.682831
26.903613
27.131038
27.365496
27.607415
27.857263
28.115566
28.382865
28.656268
28.938778
29.238373
29.557187
29.897702
30.262669
30.655327
31.079611
31.540323
32.043369
32.596113
33.207897
33.890731
34.660536
35.538409
36.554732
37.749423
39.193883
40.962235
43.304223
46.259489
51.27403
56.781451
72.038261
19.910683
19.915142
19.926172
19.942811
19.964127
19.98976
20.019562
20.053357
20.090935
20.132103
20.1767
20.224588
20.275641
20.329748
20.386806
20.446727
20.50943
20.574845
20.642908
20.713566
20.78677
20.862478
20.940654
21.021269
21.104297
21.189719
21.277519
21.367687
21.460217
21.555106
21.652357
21.751976
21.853973
21.958363
22.065163
22.174396
22.286088
22.400269
22.516974
22.636241
22.758115
22.882642
23.009875
23.139873
23.272696
23.408414
23.547101
23.688837
23.833708
23.981807
24.133237
24.288104
24.446528
24.608633
24.774556
24.944445
25.118456
25.296763
25.479549
25.667013
25.859372
26.056861
26.259732
26.468262
26.68275
26.903523
27.130939
27.365386
27.607294
27.857129
28.115418
28.382699
28.656083
28.938572
29.238142
29.556927
29.897407
30.262331
30.654939
31.079162
31.539796
32.042746
32.595368
33.206992
33.889616
34.659132
35.536605
36.552337
37.746157
39.189125
40.955222
43.291598
46.239294
51.210275
56.663691
71.343917
19.910681
19.915141
19.926171
19.94281
19.964125
19.989758
20.019561
20.053355
20.090933
20.132101
20.176698
20.224586
20.275639
20.329746
20.386804
20.446725
20.509428
20.574842
20.642906
20.713563
20.786767
20.862475
20.940651
21.021266
21.104294
21.189715
21.277515
21.367683
21.460212
21.555101
21.652351
21.75197
21.853966
21.958355
22.065155
22.174387
22.286079
22.400259
22.516964
22.636231
22.758103
22.882629
23.009862
23.139858
23.27268
23.408397
23.547083
23.688817
23.833686
23.981784
24.133211
24.288077
24.446497
24.6086
24.774521
24.944406
25.118414
25.296717
25.479499
25.666958
25.859313
26.056795
26.25966
26.468183
26.682663
26.903428
27.130834
27.36527
27.607166
27.856986
28.115259
28.382523
28.655886
28.938353
29.237896
29.556649
29.897092
30.261972
30.654526
31.078682
31.539235
32.042083
32.594574
33.206029
33.888427
34.657637
35.534682
36.549786
37.742678
39.18406
40.947754
43.278198
46.217789
51.143628
56.540781
70.654799
19.91068
19.91514
19.926169
19.942808
19.964124
19.989757
20.019559
20.053354
20.090931
20.132099
20.176696
20.224584
20.275637
20.329744
20.386802
20.446722
20.509425
20.574839
20.642903
20.71356
20.786764
20.862471
20.940647
21.021262
21.104289
21.189711
21.27751
21.367678
21.460207
21.555095
21.652345
21.751963
21.853959
21.958348
22.065147
22.174379
22.286069
22.400249
22.516953
22.636219
22.758091
22.882616
23.009847
23.139842
23.272663
23.408379
23.547063
23.688795
23.833663
23.981759
24.133184
24.288047
24.446466
24.608565
24.774483
24.944365
25.11837
25.296668
25.479445
25.6669
25.859249
26.056725
26.259584
26.468099
26.682571
26.903326
27.130721
27.365146
27.607029
27.856834
28.11509
28.382335
28.655676
28.938119
29.237634
29.556354
29.896757
30.261589
30.654086
31.078172
31.538638
32.041376
32.593729
33.205003
33.887162
34.656045
35.532636
36.547072
37.738978
39.178677
40.939814
43.263993
46.194925
51.074064
56.412699
69.971112
19.910678
19.915138
19.926168
19.942806
19.964122
19.989755
20.019557
20.053352
20.09093
20.132097
20.176694
20.224582
20.275635
20.329741
20.386799
20.44672
20.509422
20.574836
20.6429
20.713557
20.78676
20.862467
20.940643
21.021257
21.104285
21.189706
21.277505
21.367672
21.460201
21.555089
21.652339
21.751956
21.853952
21.95834
22.065138
22.174369
22.286059
22.400238
22.516941
22.636206
22.758077
22.882602
23.009832
23.139825
23.272645
23.408359
23.547042
23.688773
23.833638
23.981732
24.133155
24.288016
24.446432
24.608528
24.774443
24.944321
25.118322
25.296616
25.479389
25.666838
25.859181
26.056651
26.259502
26.468009
26.682472
26.903218
27.130602
27.365014
27.606883
27.856673
28.11491
28.382135
28.655453
28.93787
29.237356
29.55604
29.8964
30.261182
30.653618
31.07763