/*--------------------------------*- C++ -*----------------------------------*\
  =========                 |
  \\      /  F ield         | OpenFOAM: The Open Source CFD Toolbox
   \\    /   O peration     | Website:  https://openfoam.org
    \\  /    A nd           | Version:  6
     \\/     M anipulation  |
\*---------------------------------------------------------------------------*/
FoamFile
{
    version     2.0;
    format      ascii;
    class       volVectorField;
    location    "3600";
    object      wallShearStress;
}
// * * * * * * * * * * * * * * * * * * * * * * * * * * * * * * * * * * * * * //

dimensions      [0 2 -2 0 0 0 0];

internalField   uniform (0 0 0);

boundaryField
{
    inlet
    {
        type            calculated;
        value           uniform (0 0 0);
    }
    outlet
    {
        type            calculated;
        value           uniform (0 0 0);
    }
    topWall
    {
        type            calculated;
        value           nonuniform List<vector> 
545
(
(2.1753993e-08 -2.4016775e-08 0)
(2.1747212e-08 -6.7180441e-08 0)
(2.1735152e-08 -1.1206244e-07 0)
(2.1717894e-08 -1.5564528e-07 0)
(2.1696175e-08 -1.9737274e-07 0)
(2.1670495e-08 -2.3778057e-07 0)
(2.1641151e-08 -2.7721181e-07 0)
(2.1608402e-08 -3.15648e-07 0)
(2.1572538e-08 -3.5300499e-07 0)
(2.1533852e-08 -3.8928213e-07 0)
(2.1492617e-08 -4.245273e-07 0)
(2.1449077e-08 -4.5878086e-07 0)
(2.1403464e-08 -4.9206632e-07 0)
(2.1355996e-08 -5.2440327e-07 0)
(2.1306879e-08 -5.5581467e-07 0)
(2.1256304e-08 -5.8632556e-07 0)
(2.1204453e-08 -6.1596043e-07 0)
(2.1151492e-08 -6.4474265e-07 0)
(2.1097579e-08 -6.7269502e-07 0)
(2.1042863e-08 -6.9984012e-07 0)
(2.0987479e-08 -7.2620022e-07 0)
(2.0931556e-08 -7.5179714e-07 0)
(2.0875213e-08 -7.7665226e-07 0)
(2.0818561e-08 -8.0078646e-07 0)
(2.0761703e-08 -8.2422023e-07 0)
(2.0704735e-08 -8.4697352e-07 0)
(2.0647745e-08 -8.6906591e-07 0)
(2.0590814e-08 -8.9051641e-07 0)
(2.053402e-08 -9.1134366e-07 0)
(2.0477431e-08 -9.3156576e-07 0)
(2.0421112e-08 -9.5120039e-07 0)
(2.0365121e-08 -9.7026473e-07 0)
(2.0309513e-08 -9.8877557e-07 0)
(2.0254337e-08 -1.0067492e-06 0)
(2.0199637e-08 -1.0242014e-06 0)
(2.0145454e-08 -1.0411477e-06 0)
(2.0091826e-08 -1.0576031e-06 0)
(2.0038785e-08 -1.073582e-06 0)
(1.9986362e-08 -1.0890987e-06 0)
(1.9934582e-08 -1.1041669e-06 0)
(1.9883469e-08 -1.1188e-06 0)
(1.9833045e-08 -1.1330109e-06 0)
(1.9783328e-08 -1.1468122e-06 0)
(1.9734332e-08 -1.160216e-06 0)
(1.9686073e-08 -1.1732343e-06 0)
(1.963856e-08 -1.1858785e-06 0)
(1.9591804e-08 -1.1981599e-06 0)
(1.9545811e-08 -1.2100891e-06 0)
(1.9500589e-08 -1.2216766e-06 0)
(1.945614e-08 -1.2329328e-06 0)
(1.9412468e-08 -1.2438673e-06 0)
(1.9369575e-08 -1.2544898e-06 0)
(1.932746e-08 -1.2648095e-06 0)
(1.9286122e-08 -1.2748355e-06 0)
(1.924556e-08 -1.2845763e-06 0)
(1.9205771e-08 -1.2940406e-06 0)
(1.916675e-08 -1.3032364e-06 0)
(1.9128493e-08 -1.3121717e-06 0)
(1.9090994e-08 -1.3208542e-06 0)
(1.9054248e-08 -1.3292914e-06 0)
(1.9018248e-08 -1.3374904e-06 0)
(1.8982986e-08 -1.3454583e-06 0)
(1.8948455e-08 -1.3532018e-06 0)
(1.8914646e-08 -1.3607276e-06 0)
(1.8881551e-08 -1.368042e-06 0)
(1.884916e-08 -1.3751511e-06 0)
(1.8817466e-08 -1.3820611e-06 0)
(1.8786457e-08 -1.3887777e-06 0)
(1.8756123e-08 -1.3953067e-06 0)
(1.8726467e-08 -1.4016525e-06 0)
(1.8697413e-08 -1.4078238e-06 0)
(1.8669235e-08 -1.4138133e-06 0)
(1.8641842e-08 -1.4195776e-06 0)
(1.8614834e-08 -1.4251703e-06 0)
(1.8588104e-08 -1.4307024e-06 0)
(1.8561456e-08 -1.4362087e-06 0)
(1.8534845e-08 -1.4416908e-06 0)
(1.8508262e-08 -1.4471404e-06 0)
(1.8481705e-08 -1.4525551e-06 0)
(1.8455174e-08 -1.4579363e-06 0)
(1.8428671e-08 -1.4632855e-06 0)
(1.8402196e-08 -1.468603e-06 0)
(1.8375751e-08 -1.4738887e-06 0)
(1.8349336e-08 -1.4791425e-06 0)
(1.8322952e-08 -1.4843647e-06 0)
(1.8296602e-08 -1.4895556e-06 0)
(1.8270284e-08 -1.4947154e-06 0)
(1.8244001e-08 -1.4998442e-06 0)
(1.8217753e-08 -1.5049422e-06 0)
(1.8191542e-08 -1.5100095e-06 0)
(1.8165366e-08 -1.5150466e-06 0)
(1.8139233e-08 -1.520053e-06 0)
(1.8113121e-08 -1.5250306e-06 0)
(1.8087124e-08 -1.5299739e-06 0)
(1.806085e-08 -1.5349003e-06 0)
(1.8035991e-08 -1.5397438e-06 0)
(1.8012989e-08 -1.5441814e-06 0)
(1.7990693e-08 -1.5482e-06 0)
(1.7969168e-08 -1.5521137e-06 0)
(1.7947737e-08 -1.5560464e-06 0)
(1.7926253e-08 -1.5600149e-06 0)
(1.7904678e-08 -1.5639936e-06 0)
(1.7883004e-08 -1.5679697e-06 0)
(1.7861228e-08 -1.5719463e-06 0)
(1.783935e-08 -1.5759281e-06 0)
(1.7817369e-08 -1.5799157e-06 0)
(1.7795285e-08 -1.5839081e-06 0)
(1.7773098e-08 -1.5879047e-06 0)
(1.7750807e-08 -1.5919055e-06 0)
(1.7728412e-08 -1.5959107e-06 0)
(1.7705912e-08 -1.5999203e-06 0)
(1.7683308e-08 -1.6039343e-06 0)
(1.7660599e-08 -1.6079526e-06 0)
(1.7637785e-08 -1.6119751e-06 0)
(1.7614865e-08 -1.616002e-06 0)
(1.7591839e-08 -1.6200331e-06 0)
(1.7568707e-08 -1.6240683e-06 0)
(1.7545469e-08 -1.6281078e-06 0)
(1.7522124e-08 -1.6321515e-06 0)
(1.7498671e-08 -1.6361992e-06 0)
(1.7475112e-08 -1.6402511e-06 0)
(1.7451445e-08 -1.644307e-06 0)
(1.742767e-08 -1.648367e-06 0)
(1.7403787e-08 -1.652431e-06 0)
(1.7379795e-08 -1.656499e-06 0)
(1.7355694e-08 -1.660571e-06 0)
(1.7331485e-08 -1.6646469e-06 0)
(1.7307166e-08 -1.6687266e-06 0)
(1.7282737e-08 -1.6728103e-06 0)
(1.7258198e-08 -1.6768978e-06 0)
(1.723355e-08 -1.6809891e-06 0)
(1.720879e-08 -1.6850842e-06 0)
(1.7183921e-08 -1.689183e-06 0)
(1.715894e-08 -1.6932855e-06 0)
(1.7133847e-08 -1.6973917e-06 0)
(1.7108643e-08 -1.7015016e-06 0)
(1.7083328e-08 -1.7056151e-06 0)
(1.70579e-08 -1.7097322e-06 0)
(1.703236e-08 -1.7138528e-06 0)
(1.7006707e-08 -1.7179769e-06 0)
(1.6980942e-08 -1.7221046e-06 0)
(1.6955063e-08 -1.7262356e-06 0)
(1.6929071e-08 -1.7303701e-06 0)
(1.6902965e-08 -1.734508e-06 0)
(1.6876746e-08 -1.7386492e-06 0)
(1.6850412e-08 -1.7427937e-06 0)
(1.6823964e-08 -1.7469415e-06 0)
(1.6797402e-08 -1.7510926e-06 0)
(1.6770724e-08 -1.7552468e-06 0)
(1.6743932e-08 -1.7594042e-06 0)
(1.6717024e-08 -1.7635648e-06 0)
(1.6690001e-08 -1.7677284e-06 0)
(1.6662862e-08 -1.7718951e-06 0)
(1.6635608e-08 -1.7760648e-06 0)
(1.6608237e-08 -1.7802375e-06 0)
(1.6580749e-08 -1.7844131e-06 0)
(1.6553145e-08 -1.7885917e-06 0)
(1.6525425e-08 -1.7927731e-06 0)
(1.6497587e-08 -1.7969573e-06 0)
(1.6469632e-08 -1.8011443e-06 0)
(1.644156e-08 -1.805334e-06 0)
(1.641337e-08 -1.8095265e-06 0)
(1.6385062e-08 -1.8137216e-06 0)
(1.6356636e-08 -1.8179193e-06 0)
(1.6328092e-08 -1.8221196e-06 0)
(1.629943e-08 -1.8263225e-06 0)
(1.627065e-08 -1.8305278e-06 0)
(1.624175e-08 -1.8347356e-06 0)
(1.6212732e-08 -1.8389459e-06 0)
(1.6183595e-08 -1.8431584e-06 0)
(1.6154338e-08 -1.8473733e-06 0)
(1.6124962e-08 -1.8515905e-06 0)
(1.6095467e-08 -1.85581e-06 0)
(1.6065852e-08 -1.8600316e-06 0)
(1.6036118e-08 -1.8642554e-06 0)
(1.6006263e-08 -1.8684812e-06 0)
(1.5976289e-08 -1.8727092e-06 0)
(1.5946194e-08 -1.8769391e-06 0)
(1.5915978e-08 -1.881171e-06 0)
(1.5885643e-08 -1.8854048e-06 0)
(1.5855187e-08 -1.8896406e-06 0)
(1.582461e-08 -1.8938781e-06 0)
(1.5793912e-08 -1.8981174e-06 0)
(1.5763094e-08 -1.9023584e-06 0)
(1.5732154e-08 -1.9066012e-06 0)
(1.5701093e-08 -1.9108455e-06 0)
(1.5669912e-08 -1.9150915e-06 0)
(1.5638608e-08 -1.919339e-06 0)
(1.5607184e-08 -1.9235879e-06 0)
(1.5575638e-08 -1.9278383e-06 0)
(1.5543971e-08 -1.9320902e-06 0)
(1.5512182e-08 -1.9363433e-06 0)
(1.5480271e-08 -1.9405977e-06 0)
(1.5448239e-08 -1.9448534e-06 0)
(1.5416085e-08 -1.9491102e-06 0)
(1.5383809e-08 -1.9533682e-06 0)
(1.5351412e-08 -1.9576272e-06 0)
(1.5318892e-08 -1.9618873e-06 0)
(1.5286251e-08 -1.9661484e-06 0)
(1.5253488e-08 -1.9704104e-06 0)
(1.5220603e-08 -1.9746732e-06 0)
(1.5187596e-08 -1.9789369e-06 0)
(1.5154467e-08 -1.9832013e-06 0)
(1.5121216e-08 -1.9874664e-06 0)
(1.5087843e-08 -1.9917322e-06 0)
(1.5054349e-08 -1.9959986e-06 0)
(1.5020732e-08 -2.0002655e-06 0)
(1.4986993e-08 -2.0045329e-06 0)
(1.4953133e-08 -2.0088007e-06 0)
(1.4919151e-08 -2.0130689e-06 0)
(1.4885047e-08 -2.0173375e-06 0)
(1.4850821e-08 -2.0216062e-06 0)
(1.4816474e-08 -2.0258752e-06 0)
(1.4782005e-08 -2.0301443e-06 0)
(1.4747415e-08 -2.0344135e-06 0)
(1.4712703e-08 -2.0386827e-06 0)
(1.4677869e-08 -2.0429519e-06 0)
(1.4642915e-08 -2.047221e-06 0)
(1.4607839e-08 -2.05149e-06 0)
(1.4572642e-08 -2.0557587e-06 0)
(1.4537324e-08 -2.0600271e-06 0)
(1.4501885e-08 -2.0642952e-06 0)
(1.4466326e-08 -2.068563e-06 0)
(1.4430646e-08 -2.0728302e-06 0)
(1.4394845e-08 -2.077097e-06 0)
(1.4358924e-08 -2.0813632e-06 0)
(1.4322883e-08 -2.0856287e-06 0)
(1.4286722e-08 -2.0898935e-06 0)
(1.4250441e-08 -2.0941576e-06 0)
(1.421404e-08 -2.0984208e-06 0)
(1.417752e-08 -2.1026831e-06 0)
(1.414088e-08 -2.1069445e-06 0)
(1.4104122e-08 -2.1112048e-06 0)
(1.4067244e-08 -2.1154641e-06 0)
(1.4030248e-08 -2.1197222e-06 0)
(1.3993133e-08 -2.1239791e-06 0)
(1.39559e-08 -2.1282347e-06 0)
(1.3918549e-08 -2.132489e-06 0)
(1.388108e-08 -2.1367418e-06 0)
(1.3843493e-08 -2.1409932e-06 0)
(1.380579e-08 -2.145243e-06 0)
(1.3767969e-08 -2.1494912e-06 0)
(1.3730031e-08 -2.1537377e-06 0)
(1.3691977e-08 -2.1579824e-06 0)
(1.3653807e-08 -2.1622254e-06 0)
(1.3615521e-08 -2.1664665e-06 0)
(1.357712e-08 -2.1707056e-06 0)
(1.3538603e-08 -2.1749426e-06 0)
(1.3499971e-08 -2.1791776e-06 0)
(1.3461224e-08 -2.1834104e-06 0)
(1.3422364e-08 -2.187641e-06 0)
(1.3383389e-08 -2.1918693e-06 0)
(1.3344301e-08 -2.1960952e-06 0)
(1.33051e-08 -2.2003187e-06 0)
(1.3265786e-08 -2.2045396e-06 0)
(1.3226359e-08 -2.208758e-06 0)
(1.3186821e-08 -2.2129737e-06 0)
(1.3147171e-08 -2.2171867e-06 0)
(1.3107409e-08 -2.2213969e-06 0)
(1.3067537e-08 -2.2256041e-06 0)
(1.3027555e-08 -2.2298085e-06 0)
(1.2987462e-08 -2.2340098e-06 0)
(1.294726e-08 -2.2382081e-06 0)
(1.2906949e-08 -2.2424032e-06 0)
(1.2866532e-08 -2.2465949e-06 0)
(1.2825991e-08 -2.2507838e-06 0)
(1.2785415e-08 -2.2549672e-06 0)
(1.2744432e-08 -2.2591531e-06 0)
(1.2704645e-08 -2.2633086e-06 0)
(1.2666446e-08 -2.2672651e-06 0)
(1.2628705e-08 -2.2710224e-06 0)
(1.2591415e-08 -2.2747528e-06 0)
(1.2553901e-08 -2.2785205e-06 0)
(1.2516021e-08 -2.2823336e-06 0)
(1.2477734e-08 -2.2861794e-06 0)
(1.2439029e-08 -2.2900512e-06 0)
(1.2399899e-08 -2.2939509e-06 0)
(1.2360341e-08 -2.2978807e-06 0)
(1.2320351e-08 -2.3018412e-06 0)
(1.2279924e-08 -2.3058319e-06 0)
(1.2239056e-08 -2.3098524e-06 0)
(1.2197743e-08 -2.3139029e-06 0)
(1.2155982e-08 -2.3179835e-06 0)
(1.2113767e-08 -2.3220942e-06 0)
(1.2071097e-08 -2.3262351e-06 0)
(1.2027965e-08 -2.3304062e-06 0)
(1.1984369e-08 -2.3346074e-06 0)
(1.1940304e-08 -2.3388386e-06 0)
(1.1895766e-08 -2.3431001e-06 0)
(1.1850752e-08 -2.3473917e-06 0)
(1.1805257e-08 -2.3517134e-06 0)
(1.1759277e-08 -2.3560651e-06 0)
(1.1712808e-08 -2.3604469e-06 0)
(1.1665847e-08 -2.3648586e-06 0)
(1.161839e-08 -2.3693003e-06 0)
(1.1570433e-08 -2.3737718e-06 0)
(1.1521971e-08 -2.3782732e-06 0)
(1.1473002e-08 -2.3828042e-06 0)
(1.1423521e-08 -2.3873649e-06 0)
(1.1373524e-08 -2.391955e-06 0)
(1.1323008e-08 -2.3965746e-06 0)
(1.127197e-08 -2.4012235e-06 0)
(1.1220405e-08 -2.4059016e-06 0)
(1.116831e-08 -2.4106086e-06 0)
(1.1115681e-08 -2.4153447e-06 0)
(1.1062516e-08 -2.4201093e-06 0)
(1.100881e-08 -2.4249026e-06 0)
(1.095456e-08 -2.4297242e-06 0)
(1.0899764e-08 -2.4345741e-06 0)
(1.0844417e-08 -2.4394519e-06 0)
(1.0788517e-08 -2.4443575e-06 0)
(1.073206e-08 -2.4492906e-06 0)
(1.0675044e-08 -2.454251e-06 0)
(1.0617465e-08 -2.4592384e-06 0)
(1.0559322e-08 -2.4642527e-06 0)
(1.050061e-08 -2.4692934e-06 0)
(1.0441328e-08 -2.4743604e-06 0)
(1.0381473e-08 -2.4794533e-06 0)
(1.0321044e-08 -2.4845718e-06 0)
(1.0260036e-08 -2.4897154e-06 0)
(1.0198449e-08 -2.4948841e-06 0)
(1.013628e-08 -2.5000772e-06 0)
(1.0073527e-08 -2.5052946e-06 0)
(1.0010189e-08 -2.5105356e-06 0)
(9.9462642e-09 -2.5158002e-06 0)
(9.8817507e-09 -2.5210875e-06 0)
(9.8166478e-09 -2.5263974e-06 0)
(9.7509537e-09 -2.5317293e-06 0)
(9.6846682e-09 -2.5370829e-06 0)
(9.6177896e-09 -2.5424574e-06 0)
(9.5503182e-09 -2.5478525e-06 0)
(9.4822527e-09 -2.5532677e-06 0)
(9.4135938e-09 -2.5587024e-06 0)
(9.3443406e-09 -2.5641559e-06 0)
(9.274494e-09 -2.5696279e-06 0)
(9.2040537e-09 -2.5751175e-06 0)
(9.1330211e-09 -2.5806244e-06 0)
(9.0613962e-09 -2.5861477e-06 0)
(8.989181e-09 -2.591687e-06 0)
(8.9163759e-09 -2.5972412e-06 0)
(8.8429835e-09 -2.6028101e-06 0)
(8.7690045e-09 -2.6083927e-06 0)
(8.6944422e-09 -2.6139884e-06 0)
(8.619298e-09 -2.6195962e-06 0)
(8.5435754e-09 -2.6252157e-06 0)
(8.4672765e-09 -2.6308457e-06 0)
(8.3904055e-09 -2.6364858e-06 0)
(8.3129651e-09 -2.6421348e-06 0)
(8.2349601e-09 -2.6477921e-06 0)
(8.1563938e-09 -2.6534566e-06 0)
(8.0772716e-09 -2.6591277e-06 0)
(7.9975976e-09 -2.6648041e-06 0)
(7.9173779e-09 -2.6704852e-06 0)
(7.8366172e-09 -2.6761698e-06 0)
(7.7553224e-09 -2.6818571e-06 0)
(7.6734989e-09 -2.6875459e-06 0)
(7.5911543e-09 -2.6932354e-06 0)
(7.5082948e-09 -2.6989242e-06 0)
(7.4249289e-09 -2.7046117e-06 0)
(7.3410635e-09 -2.7102963e-06 0)
(7.2567079e-09 -2.7159774e-06 0)
(7.1718698e-09 -2.7216534e-06 0)
(7.0865594e-09 -2.7273235e-06 0)
(7.0007852e-09 -2.7329862e-06 0)
(6.9145583e-09 -2.7386406e-06 0)
(6.8278881e-09 -2.7442852e-06 0)
(6.7407864e-09 -2.7499191e-06 0)
(6.6532637e-09 -2.7555407e-06 0)
(6.5653327e-09 -2.761149e-06 0)
(6.4770047e-09 -2.7667424e-06 0)
(6.3882934e-09 -2.7723199e-06 0)
(6.299211e-09 -2.7778798e-06 0)
(6.2097721e-09 -2.7834212e-06 0)
(6.1199898e-09 -2.7889422e-06 0)
(6.0298798e-09 -2.7944418e-06 0)
(5.9394561e-09 -2.7999184e-06 0)
(5.8487354e-09 -2.8053707e-06 0)
(5.7577326e-09 -2.810797e-06 0)
(5.6664654e-09 -2.8161963e-06 0)
(5.5749497e-09 -2.8215665e-06 0)
(5.4832041e-09 -2.8269067e-06 0)
(5.3912456e-09 -2.8322149e-06 0)
(5.2990937e-09 -2.8374901e-06 0)
(5.2067664e-09 -2.8427301e-06 0)
(5.1142843e-09 -2.8479341e-06 0)
(5.0216663e-09 -2.8530998e-06 0)
(4.9289338e-09 -2.8582264e-06 0)
(4.8361069e-09 -2.8633115e-06 0)
(4.743208e-09 -2.8683543e-06 0)
(4.6502579e-09 -2.8733525e-06 0)
(4.55728e-09 -2.8783052e-06 0)
(4.4642962e-09 -2.88321e-06 0)
(4.3713306e-09 -2.8880662e-06 0)
(4.2784059e-09 -2.8928713e-06 0)
(4.1855473e-09 -2.8976244e-06 0)
(4.0927782e-09 -2.9023233e-06 0)
(4.0001244e-09 -2.906967e-06 0)
(3.9076104e-09 -2.9115532e-06 0)
(3.8152626e-09 -2.916081e-06 0)
(3.7231062e-09 -2.9205481e-06 0)
(3.6311683e-09 -2.9249535e-06 0)
(3.5394747e-09 -2.9292951e-06 0)
(3.4480531e-09 -2.9335719e-06 0)
(3.3569299e-09 -2.9377816e-06 0)
(3.2661333e-09 -2.9419233e-06 0)
(3.1756903e-09 -2.9459949e-06 0)
(3.0856296e-09 -2.9499955e-06 0)
(2.9959784e-09 -2.9539229e-06 0)
(2.9067657e-09 -2.9577762e-06 0)
(2.8180193e-09 -2.9615533e-06 0)
(2.7297685e-09 -2.9652535e-06 0)
(2.642041e-09 -2.9688745e-06 0)
(2.5548664e-09 -2.9724157e-06 0)
(2.4682727e-09 -2.9758749e-06 0)
(2.3822893e-09 -2.9792517e-06 0)
(2.2969445e-09 -2.9825438e-06 0)
(2.2122674e-09 -2.9857508e-06 0)
(2.1282863e-09 -2.9888705e-06 0)
(2.0450302e-09 -2.9919027e-06 0)
(1.962527e-09 -2.9948451e-06 0)
(1.8808056e-09 -2.9976977e-06 0)
(1.7998935e-09 -3.0004583e-06 0)
(1.7198192e-09 -3.0031268e-06 0)
(1.6406097e-09 -3.0057013e-06 0)
(1.562293e-09 -3.0081816e-06 0)
(1.4848956e-09 -3.010566e-06 0)
(1.4084447e-09 -3.0128545e-06 0)
(1.3329662e-09 -3.0150453e-06 0)
(1.2584865e-09 -3.0171385e-06 0)
(1.1850306e-09 -3.0191326e-06 0)
(1.112624e-09 -3.0210277e-06 0)
(1.0412909e-09 -3.0228224e-06 0)
(9.7105569e-10 -3.024517e-06 0)
(9.0194156e-10 -3.02611e-06 0)
(8.3397176e-10 -3.0276021e-06 0)
(7.6716831e-10 -3.0289917e-06 0)
(7.0155323e-10 -3.0302798e-06 0)
(6.3714729e-10 -3.0314649e-06 0)
(5.7397116e-10 -3.032548e-06 0)
(5.1204427e-10 -3.0335279e-06 0)
(4.5138584e-10 -3.0344057e-06 0)
(3.9201386e-10 -3.0351803e-06 0)
(3.3394611e-10 -3.0358528e-06 0)
(2.7719841e-10 -3.0364225e-06 0)
(2.2178951e-10 -3.0368907e-06 0)
(1.6772245e-10 -3.0372565e-06 0)
(1.1506049e-10 -3.0375218e-06 0)
(6.3606436e-11 -3.0376853e-06 0)
(1.42298e-11 -3.0377511e-06 0)
(-3.681326e-11 -3.0377101e-06 0)
(-9.0123163e-11 -3.0375481e-06 0)
(-1.4274548e-10 -3.037245e-06 0)
(-1.9455514e-10 -3.0367978e-06 0)
(-2.4397641e-10 -3.0362216e-06 0)
(-2.9087723e-10 -3.0355252e-06 0)
(-3.3527698e-10 -3.0347134e-06 0)
(-3.7722935e-10 -3.0337927e-06 0)
(-4.16795e-10 -3.0327679e-06 0)
(-4.5404821e-10 -3.0316465e-06 0)
(-4.8906546e-10 -3.0304331e-06 0)
(-5.2192077e-10 -3.0291343e-06 0)
(-5.5268384e-10 -3.0277546e-06 0)
(-5.8142328e-10 -3.0263001e-06 0)
(-6.0820551e-10 -3.0247748e-06 0)
(-6.3309626e-10 -3.0231847e-06 0)
(-6.5615858e-10 -3.0215335e-06 0)
(-6.774546e-10 -3.0198266e-06 0)
(-6.9704391e-10 -3.0180677e-06 0)
(-7.149853e-10 -3.0162617e-06 0)
(-7.3133512e-10 -3.014412e-06 0)
(-7.4614902e-10 -3.0125233e-06 0)
(-7.5948019e-10 -3.0105988e-06 0)
(-7.7138121e-10 -3.0086427e-06 0)
(-7.8190231e-10 -3.0066581e-06 0)
(-7.9109318e-10 -3.0046488e-06 0)
(-7.9900123e-10 -3.0026179e-06 0)
(-8.0567338e-10 -3.0005687e-06 0)
(-8.1115441e-10 -2.9985042e-06 0)
(-8.1548862e-10 -2.9964274e-06 0)
(-8.187183e-10 -2.9943412e-06 0)
(-8.2088532e-10 -2.9922482e-06 0)
(-8.2202963e-10 -2.9901513e-06 0)
(-8.2219078e-10 -2.9880527e-06 0)
(-8.2140654e-10 -2.9859552e-06 0)
(-8.197143e-10 -2.9838608e-06 0)
(-8.1714979e-10 -2.9817722e-06 0)
(-8.1374836e-10 -2.9796909e-06 0)
(-8.0954381e-10 -2.9776198e-06 0)
(-8.0456958e-10 -2.97556e-06 0)
(-7.9885771e-10 -2.9735144e-06 0)
(-7.9243978e-10 -2.9714837e-06 0)
(-7.8534617e-10 -2.9694709e-06 0)
(-7.7760673e-10 -2.9674764e-06 0)
(-7.6925025e-10 -2.9655031e-06 0)
(-7.6030494e-10 -2.9635511e-06 0)
(-7.507981e-10 -2.9616235e-06 0)
(-7.4075633e-10 -2.9597199e-06 0)
(-7.3020553e-10 -2.9578434e-06 0)
(-7.1917075e-10 -2.9559934e-06 0)
(-7.0767655e-10 -2.9541731e-06 0)
(-6.9574643e-10 -2.9523816e-06 0)
(-6.8340372e-10 -2.9506221e-06 0)
(-6.7067039e-10 -2.9488933e-06 0)
(-6.5756855e-10 -2.9471986e-06 0)
(-6.4411863e-10 -2.9455364e-06 0)
(-6.3034163e-10 -2.9439102e-06 0)
(-6.1625642e-10 -2.942318e-06 0)
(-6.0188291e-10 -2.9407634e-06 0)
(-5.8723843e-10 -2.9392442e-06 0)
(-5.7234181e-10 -2.9377642e-06 0)
(-5.5720883e-10 -2.9363207e-06 0)
(-5.418573e-10 -2.9349177e-06 0)
(-5.2630143e-10 -2.9335521e-06 0)
(-5.1055804e-10 -2.9322282e-06 0)
(-4.9463972e-10 -2.9309426e-06 0)
(-4.7856233e-10 -2.9296997e-06 0)
(-4.6233691e-10 -2.9284957e-06 0)
(-4.4597825e-10 -2.9273353e-06 0)
(-4.2949585e-10 -2.9262144e-06 0)
(-4.129035e-10 -2.9251378e-06 0)
(-3.9620919e-10 -2.9241011e-06 0)
(-3.7942564e-10 -2.9231095e-06 0)
(-3.6255947e-10 -2.9221579e-06 0)
(-3.4562241e-10 -2.9212521e-06 0)
(-3.2861985e-10 -2.9203865e-06 0)
(-3.1156256e-10 -2.9195671e-06 0)
(-2.9445496e-10 -2.9187881e-06 0)
(-2.7730691e-10 -2.9180556e-06 0)
(-2.6012194e-10 -2.9173636e-06 0)
(-2.4290877e-10 -2.9167185e-06 0)
(-2.2566984e-10 -2.9161137e-06 0)
(-2.0841202e-10 -2.9155563e-06 0)
(-1.9113582e-10 -2.9150386e-06 0)
(-1.7384535e-10 -2.9145706e-06 0)
(-1.5653853e-10 -2.9141355e-06 0)
(-1.3921762e-10 -2.9137722e-06 0)
(-1.2188127e-10 -2.9133693e-06 0)
(-1.0454054e-10 -2.9132786e-06 0)
(-8.7211749e-11 -2.9123469e-06 0)
(-6.9943092e-11 -2.9143551e-06 0)
(-5.2799012e-11 -2.9066121e-06 0)
(-3.5596295e-11 -2.9301596e-06 0)
(-1.926596e-11 -2.8423603e-06 0)
(1.5404459e-12 -3.0757836e-06 0)
(7.3378492e-12 -2.6864608e-06 0)
)
;
    }
    bottomWall
    {
        type            calculated;
        value           nonuniform List<vector> 
449
(
(-49.551895 -0.93467176 0)
(-22.090271 -0.22973889 0)
(-15.810082 -0.025234208 0)
(-13.976988 -0.0018571012 0)
(-13.549839 0.0041059749 0)
(-13.497783 0.0026820055 0)
(-13.329216 -0.00025583515 0)
(-13.060677 -0.0014239408 0)
(-12.781037 -0.0015212533 0)
(-12.531772 -0.0013148198 0)
(-12.320641 -0.0010915106 0)
(-12.141901 -0.00094232772 0)
(-11.985843 -0.00085288758 0)
(-11.846658 -0.00080836214 0)
(-11.717511 -0.00079532895 0)
(-11.595921 -0.00077325392 0)
(-11.481398 -0.00075049587 0)
(-11.372267 -0.00072912404 0)
(-11.26853 -0.00069845387 0)
(-11.170246 -0.00066561027 0)
(-11.077091 -0.00063462679 0)
(-10.9886 -0.00060446933 0)
(-10.904571 -0.00057374765 0)
(-10.824937 -0.00054436817 0)
(-10.749191 -0.000518017 0)
(-10.677152 -0.00049332626 0)
(-10.608389 -0.00047077223 0)
(-10.542769 -0.00044863801 0)
(-10.480108 -0.00042876827 0)
(-10.42006 -0.00041029217 0)
(-10.362568 -0.00039396239 0)
(-10.307185 -0.00037794143 0)
(-10.254123 -0.00038077621 0)
(-10.201027 -0.00038910572 0)
(-10.149253 -0.00037811648 0)
(-10.099222 -0.00036461488 0)
(-10.05092 -0.00035158713 0)
(-10.004278 -0.00033962303 0)
(-9.9591086 -0.00032859136 0)
(-9.9153568 -0.00031827772 0)
(-9.8728737 -0.00030832669 0)
(-9.831677 -0.00029878296 0)
(-9.7916334 -0.00028964757 0)
(-9.7527526 -0.0002812102 0)
(-9.7148872 -0.00027304116 0)
(-9.6780716 -0.00026548132 0)
(-9.6421582 -0.00025862249 0)
(-9.6071124 -0.00025271636 0)
(-9.5727691 -0.0002477897 0)
(-9.5390324 -0.00024279441 0)
(-9.505953 -0.00023743801 0)
(-9.4735008 -0.00023211929 0)
(-9.4417173 -0.0002264895 0)
(-9.4106281 -0.00022114696 0)
(-9.3801473 -0.00021636951 0)
(-9.3502907 -0.00021121139 0)
(-9.3210531 -0.00020652955 0)
(-9.2923791 -0.00020210977 0)
(-9.2642619 -0.00019769666 0)
(-9.2366743 -0.00019354388 0)
(-9.2096159 -0.00018942632 0)
(-9.1830412 -0.00018568054 0)
(-9.1569475 -0.00018177814 0)
(-9.1313345 -0.00017800856 0)
(-9.1061746 -0.0001747584 0)
(-9.0814182 -0.00017156526 0)
(-9.0570455 -0.0001685792 0)
(-9.0330465 -0.00016550316 0)
(-9.0094325 -0.00016237571 0)
(-8.986195 -0.00015938923 0)
(-8.9633417 -0.00015628924 0)
(-8.9408624 -0.00015345649 0)
(-8.9187315 -0.00015073955 0)
(-8.8969488 -0.00014789427 0)
(-8.8755141 -0.00014535365 0)
(-8.8543909 -0.00014287078 0)
(-8.8335893 -0.00014031062 0)
(-8.8130955 -0.00013796579 0)
(-8.7929042 -0.00013559314 0)
(-8.7730048 -0.00013334024 0)
(-8.7533831 -0.00013122603 0)
(-8.7340343 -0.00012897853 0)
(-8.714966 -0.00012689906 0)
(-8.6961497 -0.00012496415 0)
(-8.6775868 -0.0001229162 0)
(-8.6592757 -0.0001209912 0)
(-8.6412067 -0.00011915317 0)
(-8.6233711 -0.00011729425 0)
(-8.6057663 -0.00011555244 0)
(-8.5883818 -0.00011378927 0)
(-8.5712251 -0.00011203559 0)
(-8.5542803 -0.0001104632 0)
(-8.5375383 -0.00010884641 0)
(-8.521004 -0.00010719456 0)
(-8.5046735 -0.00010570388 0)
(-8.4885317 -0.00010422592 0)
(-8.4725812 -0.0001027029 0)
(-8.4568199 -0.00010128694 0)
(-8.4412384 -9.9893687e-05 0)
(-8.4258367 -9.8500418e-05 0)
(-8.4106076 -9.7186249e-05 0)
(-8.3955474 -9.5876243e-05 0)
(-8.3806554 -9.4548554e-05 0)
(-8.3659316 -9.3311704e-05 0)
(-8.3513611 -9.2130289e-05 0)
(-8.3369468 -9.0883614e-05 0)
(-8.3226901 -8.9687012e-05 0)
(-8.3085829 -8.859403e-05 0)
(-8.2946174 -8.7445971e-05 0)
(-8.2808018 -8.629423e-05 0)
(-8.2671269 -8.5271295e-05 0)
(-8.2535867 -8.4193312e-05 0)
(-8.2401868 -8.3119303e-05 0)
(-8.226919 -8.2145715e-05 0)
(-8.2137791 -8.1139307e-05 0)
(-8.2007695 -8.0122387e-05 0)
(-8.1878893 -7.9181267e-05 0)
(-8.1751275 -7.8274202e-05 0)
(-8.1624861 -7.7314632e-05 0)
(-8.1499679 -7.6386454e-05 0)
(-8.1375658 -7.5547085e-05 0)
(-8.125274 -7.4663784e-05 0)
(-8.1130983 -7.376656e-05 0)
(-8.1010348 -7.2956266e-05 0)
(-8.0890765 -7.2139651e-05 0)
(-8.0772255 -7.1311247e-05 0)
(-8.0654811 -7.0507007e-05 0)
(-8.0538388 -6.9756899e-05 0)
(-8.0422948 -6.897093e-05 0)
(-8.0308553 -6.8182382e-05 0)
(-8.0195136 -6.7480141e-05 0)
(-8.0082648 -6.6755084e-05 0)
(-7.9971109 -6.6015261e-05 0)
(-7.9860534 -6.5302414e-05 0)
(-7.975086 -6.4649157e-05 0)
(-7.9642051 -6.3956193e-05 0)
(-7.9534165 -6.3251451e-05 0)
(-7.9427166 -6.2616977e-05 0)
(-7.9320997 -6.1985103e-05 0)
(-7.9215664 -6.1334453e-05 0)
(-7.9111189 -6.0687813e-05 0)
(-7.9007534 -6.0096572e-05 0)
(-7.8904659 -5.9490407e-05 0)
(-7.8802591 -5.8873253e-05 0)
(-7.8701324 -5.8288971e-05 0)
(-7.8600807 -5.7734738e-05 0)
(-7.8501028 -5.7152335e-05 0)
(-7.8402027 -5.6568048e-05 0)
(-7.8303771 -5.6036196e-05 0)
(-7.8206212 -5.55092e-05 0)
(-7.8109359 -5.4954104e-05 0)
(-7.8013242 -5.4410828e-05 0)
(-7.7917819 -5.3913306e-05 0)
(-7.7823056 -5.3411996e-05 0)
(-7.7728962 -5.28904e-05 0)
(-7.7635562 -5.2380536e-05 0)
(-7.7542813 -5.1913232e-05 0)
(-7.7450691 -5.1432618e-05 0)
(-7.7359209 -5.0944829e-05 0)
(-7.7268373 -5.0471673e-05 0)
(-7.7178151 -5.002431e-05 0)
(-7.7088525 -4.9570261e-05 0)
(-7.6999509 -4.910611e-05 0)
(-7.6911104 -4.8666935e-05 0)
(-7.6823273 -4.824428e-05 0)
(-7.6736008 -4.7810102e-05 0)
(-7.6649329 -4.737164e-05 0)
(-7.656322 -4.6959988e-05 0)
(-7.6477665 -4.6558454e-05 0)
(-7.6392621 -4.615919e-05 0)
(-7.6308173 -4.571694e-05 0)
(-7.6224199 -4.5380272e-05 0)
(-7.6140849 -4.4835005e-05 0)
(-7.6062718 -4.4660785e-05 0)
(-7.5989057 -4.446314e-05 0)
(-7.5915189 -4.3918558e-05 0)
(-7.5841189 -4.3633729e-05 0)
(-7.5766928 -4.3287686e-05 0)
(-7.5692442 -4.2939536e-05 0)
(-7.5617751 -4.2585753e-05 0)
(-7.5542847 -4.2253737e-05 0)
(-7.5467712 -4.1927148e-05 0)
(-7.5392347 -4.1590236e-05 0)
(-7.5316777 -4.1241922e-05 0)
(-7.5241002 -4.091332e-05 0)
(-7.5165009 -4.058729e-05 0)
(-7.5088796 -4.0258511e-05 0)
(-7.501238 -3.9919582e-05 0)
(-7.493577 -3.9590135e-05 0)
(-7.4858952 -3.9274101e-05 0)
(-7.4781917 -3.8952165e-05 0)
(-7.4704688 -3.8616752e-05 0)
(-7.4627275 -3.8291023e-05 0)
(-7.4549668 -3.7980573e-05 0)
(-7.4471847 -3.7668439e-05 0)
(-7.4393836 -3.7339754e-05 0)
(-7.4315653 -3.701607e-05 0)
(-7.4237287 -3.6712997e-05 0)
(-7.4158714 -3.6405208e-05 0)
(-7.4079961 -3.6085332e-05 0)
(-7.4001041 -3.5768376e-05 0)
(-7.3921947 -3.5470271e-05 0)
(-7.3842656 -3.5166162e-05 0)
(-7.3763197 -3.4854265e-05 0)
(-7.3683575 -3.4547279e-05 0)
(-7.3603784 -3.4253529e-05 0)
(-7.352381 -3.3952183e-05 0)
(-7.3443681 -3.3646228e-05 0)
(-7.3363397 -3.3351443e-05 0)
(-7.3282941 -3.3064427e-05 0)
(-7.3202316 -3.2764601e-05 0)
(-7.3121555 -3.2463668e-05 0)
(-7.3040641 -3.2183093e-05 0)
(-7.2959559 -3.1896701e-05 0)
(-7.2878327 -3.1602523e-05 0)
(-7.2796965 -3.1312887e-05 0)
(-7.2715451 -3.1039846e-05 0)
(-7.2633778 -3.0755161e-05 0)
(-7.2551978 -3.0465984e-05 0)
(-7.247005 -3.0190797e-05 0)
(-7.2387972 -2.9920814e-05 0)
(-7.2305749 -2.9640626e-05 0)
(-7.2223415 -2.9359756e-05 0)
(-7.2140949 -2.9096903e-05 0)
(-7.2058342 -2.8825381e-05 0)
(-7.1975618 -2.855088e-05 0)
(-7.1892779 -2.8286699e-05 0)
(-7.180981 -2.8024733e-05 0)
(-7.1726718 -2.7757539e-05 0)
(-7.1643526 -2.7492172e-05 0)
(-7.1560212 -2.7240991e-05 0)
(-7.1476774 -2.6978109e-05 0)
(-7.1393247 -2.6714942e-05 0)
(-7.1309611 -2.6469136e-05 0)
(-7.1225853 -2.6213713e-05 0)
(-7.1142008 -2.595624e-05 0)
(-7.1058067 -2.5711365e-05 0)
(-7.0974014 -2.5465771e-05 0)
(-7.0889867 -2.5213737e-05 0)
(-7.080564 -2.4968766e-05 0)
(-7.0721312 -2.4732325e-05 0)
(-7.0636886 -2.4486611e-05 0)
(-7.0552392 -2.4243229e-05 0)
(-7.0467807 -2.4013642e-05 0)
(-7.0383124 -2.3773919e-05 0)
(-7.0298384 -2.3534378e-05 0)
(-7.021356 -2.33099e-05 0)
(-7.0128644 -2.307619e-05 0)
(-7.0043674 -2.2841966e-05 0)
(-6.9958629 -2.2621469e-05 0)
(-6.9873502 -2.2392907e-05 0)
(-6.9788324 -2.216543e-05 0)
(-6.9703076 -2.1949141e-05 0)
(-6.9617753 -2.1725645e-05 0)
(-6.9532387 -2.1502991e-05 0)
(-6.9446959 -2.129159e-05 0)
(-6.9361461 -2.1073625e-05 0)
(-6.9275927 -2.0855899e-05 0)
(-6.9190335 -2.0649793e-05 0)
(-6.910468 -2.043695e-05 0)
(-6.9018994 -2.0223941e-05 0)
(-6.893326 -2.0023172e-05 0)
(-6.8847465 -1.9815117e-05 0)
(-6.876165 -1.9606987e-05 0)
(-6.867579 -1.9410721e-05 0)
(-6.858988 -1.9207722e-05 0)
(-6.850395 -1.9006179e-05 0)
(-6.8417981 -1.8812986e-05 0)
(-6.8331974 -1.8615169e-05 0)
(-6.8245947 -1.8419906e-05 0)
(-6.8159889 -1.8230139e-05 0)
(-6.80738 -1.8037071e-05 0)
(-6.7987698 -1.7848057e-05 0)
(-6.7901564 -1.7661554e-05 0)
(-6.7815419 -1.7473166e-05 0)
(-6.7729254 -1.7290978e-05 0)
(-6.7643068 -1.7107621e-05 0)
(-6.7556875 -1.6923696e-05 0)
(-6.7470672 -1.6748023e-05 0)
(-6.7384443 -1.6567883e-05 0)
(-6.7298225 -1.6389316e-05 0)
(-6.7211992 -1.6217772e-05 0)
(-6.7125752 -1.6041597e-05 0)
(-6.7039516 -1.5870166e-05 0)
(-6.6953273 -1.5700981e-05 0)
(-6.6867035 -1.552926e-05 0)
(-6.6780803 -1.5364634e-05 0)
(-6.6694563 -1.519788e-05 0)
(-6.6608344 -1.5031204e-05 0)
(-6.6522128 -1.4871127e-05 0)
(-6.6435919 -1.4707791e-05 0)
(-6.6349728 -1.454821e-05 0)
(-6.6263544 -1.4390212e-05 0)
(-6.6177381 -1.423137e-05 0)
(-6.6091234 -1.4078078e-05 0)
(-6.6005098 -1.3922565e-05 0)
(-6.5918993 -1.3768958e-05 0)
(-6.5832905 -1.3619198e-05 0)
(-6.5746842 -1.3467606e-05 0)
(-6.5660805 -1.3320716e-05 0)
(-6.5574788 -1.3172785e-05 0)
(-6.548881 -1.3026036e-05 0)
(-6.5402858 -1.2883521e-05 0)
(-6.5316934 -1.2738744e-05 0)
(-6.5231053 -1.259824e-05 0)
(-6.5145194 -1.2457948e-05 0)
(-6.5059383 -1.2317699e-05 0)
(-6.4973604 -1.2181691e-05 0)
(-6.4887868 -1.2044159e-05 0)
(-6.4802172 -1.1909888e-05 0)
(-6.4716517 -1.1776367e-05 0)
(-6.4630908 -1.1642996e-05 0)
(-6.4545347 -1.1513176e-05 0)
(-6.4459826 -1.1382663e-05 0)
(-6.4374361 -1.1254661e-05 0)
(-6.4288937 -1.1127455e-05 0)
(-6.4203575 -1.1000823e-05 0)
(-6.4118257 -1.0876948e-05 0)
(-6.4033001 -1.0752652e-05 0)
(-6.3947793 -1.0631345e-05 0)
(-6.3862645 -1.0509905e-05 0)
(-6.3777555 -1.0389617e-05 0)
(-6.369253 -1.0271707e-05 0)
(-6.3607557 -1.0153718e-05 0)
(-6.3522655 -1.0038283e-05 0)
(-6.3437806 -9.9226043e-06 0)
(-6.3353035 -9.8090561e-06 0)
(-6.3268316 -9.696522e-06 0)
(-6.3183679 -9.5842597e-06 0)
(-6.3099098 -9.4747958e-06 0)
(-6.3014597 -9.3649209e-06 0)
(-6.2930155 -9.2574904e-06 0)
(-6.2845795 -9.1501473e-06 0)
(-6.27615 -9.0441012e-06 0)
(-6.267729 -8.9396461e-06 0)
(-6.2593144 -8.8352765e-06 0)
(-6.2509091 -8.7332709e-06 0)
(-6.2425097 -8.6312716e-06 0)
(-6.2341202 -8.5311113e-06 0)
(-6.2257367 -8.4315864e-06 0)
(-6.2173634 -8.3329587e-06 0)
(-6.2089964 -8.2358427e-06 0)
(-6.20064 -8.1391796e-06 0)
(-6.1922897 -8.044274e-06 0)
(-6.1839504 -7.9495823e-06 0)
(-6.1756173 -7.8566002e-06 0)
(-6.1672956 -7.7640116e-06 0)
(-6.15898 -7.6728342e-06 0)
(-6.1506766 -7.5822831e-06 0)
(-6.142379 -7.4927433e-06 0)
(-6.1340952 -7.4040475e-06 0)
(-6.1258147 -7.3160978e-06 0)
(-6.117555 -7.2269431e-06 0)
(-6.1092896 -7.1529799e-06 0)
(-6.1001128 -7.045271e-06 0)
(-6.0901173 -6.9392525e-06 0)
(-6.0802699 -6.8486441e-06 0)
(-6.0705497 -6.7516573e-06 0)
(-6.0609731 -6.6588202e-06 0)
(-6.0515225 -6.567819e-06 0)
(-6.0422072 -6.4790888e-06 0)
(-6.0330118 -6.3923961e-06 0)
(-6.0239461 -6.3077886e-06 0)
(-6.014994 -6.228787e-06 0)
(-6.0061562 -6.1550726e-06 0)
(-5.997416 -6.0795112e-06 0)
(-5.9887949 -6.0026134e-06 0)