# Wall shear stress
# Time          	patch           	min             	max             
1.00000000e+02	topWall	(-2.81737522e-09 -6.88822549e-07 0.00000000e+00)	(9.55633552e-09 -1.04923667e-08 0.00000000e+00)
1.00000000e+02	bottomWall	(-4.95885793e+01 -9.35182997e-01 0.00000000e+00)	(-6.55593433e+00 4.09342357e-03 0.00000000e+00)
2.00000000e+02	topWall	(-4.01298824e-09 -1.06307344e-06 0.00000000e+00)	(1.32045614e-08 -1.44588207e-08 0.00000000e+00)
2.00000000e+02	bottomWall	(-4.95639143e+01 -9.34834463e-01 0.00000000e+00)	(-6.38076864e+00 4.09347153e-03 0.00000000e+00)
3.00000000e+02	topWall	(-4.77766943e-09 -1.41636808e-06 0.00000000e+00)	(1.60094607e-08 -1.75667122e-08 0.00000000e+00)
3.00000000e+02	bottomWall	(-4.95567216e+01 -9.34748560e-01 0.00000000e+00)	(-6.16831087e+00 4.09316380e-03 0.00000000e+00)
4.00000000e+02	topWall	(-5.22607658e-09 -1.73057585e-06 0.00000000e+00)	(1.80328855e-08 -1.98549929e-08 0.00000000e+00)
4.00000000e+02	bottomWall	(-4.95537472e+01 -9.34715251e-01 0.00000000e+00)	(-5.99936915e+00 4.09291397e-03 0.00000000e+00)
5.00000000e+02	topWall	(-5.43490997e-09 -2.00042002e-06 0.00000000e+00)	(1.94617869e-08 -2.14319826e-08 0.00000000e+00)
5.00000000e+02	bottomWall	(-4.95523492e+01 -9.34679907e-01 0.00000000e+00)	(-5.86403053e+00 4.09208317e-03 0.00000000e+00)
6.00000000e+02	topWall	(-5.46175372e-09 -2.22763246e-06 0.00000000e+00)	(2.04524042e-08 -2.25678068e-08 0.00000000e+00)
6.00000000e+02	bottomWall	(-4.95516857e+01 -9.34671580e-01 0.00000000e+00)	(-5.75291301e+00 4.09588201e-03 0.00000000e+00)
7.00000000e+02	topWall	(-5.36520578e-09 -2.41786181e-06 0.00000000e+00)	(2.11383134e-08 -2.33275119e-08 0.00000000e+00)
7.00000000e+02	bottomWall	(-4.95513912e+01 -9.34668465e-01 0.00000000e+00)	(-5.66219914e+00 4.09581196e-03 0.00000000e+00)
8.00000000e+02	topWall	(-5.19528219e-09 -2.57592923e-06 0.00000000e+00)	(2.15753954e-08 -2.38124585e-08 0.00000000e+00)
8.00000000e+02	bottomWall	(-4.95512831e+01 -9.34664596e-01 0.00000000e+00)	(-5.58959666e+00 4.09827047e-03 0.00000000e+00)
9.00000000e+02	topWall	(-4.95197662e-09 -2.70623561e-06 0.00000000e+00)	(2.18494168e-08 -2.41167348e-08 0.00000000e+00)
9.00000000e+02	bottomWall	(-4.95512683e+01 -9.34664158e-01 0.00000000e+00)	(-5.53210196e+00 4.10137444e-03 0.00000000e+00)
1.00000000e+03	topWall	(-4.65385543e-09 -2.81271575e-06 0.00000000e+00)	(2.20122957e-08 -2.43009861e-08 0.00000000e+00)
1.00000000e+03	bottomWall	(-4.95513047e+01 -9.34664430e-01 0.00000000e+00)	(-5.48716876e+00 4.10136973e-03 0.00000000e+00)
1.10000000e+03	topWall	(-4.32098232e-09 -2.89887933e-06 0.00000000e+00)	(2.20950198e-08 -2.43931195e-08 0.00000000e+00)
1.10000000e+03	bottomWall	(-4.95513634e+01 -9.34665848e-01 0.00000000e+00)	(-5.45290656e+00 4.10133861e-03 0.00000000e+00)
1.20000000e+03	topWall	(-3.96883228e-09 -2.96779308e-06 0.00000000e+00)	(2.21268692e-08 -2.44291652e-08 0.00000000e+00)
1.20000000e+03	bottomWall	(-4.95514267e+01 -9.34666083e-01 0.00000000e+00)	(-5.42750476e+00 4.10317877e-03 0.00000000e+00)
1.30000000e+03	topWall	(-3.60711539e-09 -3.02215727e-06 0.00000000e+00)	(2.21240034e-08 -2.44261040e-08 0.00000000e+00)
1.30000000e+03	bottomWall	(-4.95514926e+01 -9.34666266e-01 0.00000000e+00)	(-5.40940558e+00 4.10507387e-03 0.00000000e+00)
1.40000000e+03	topWall	(-3.24549122e-09 -3.06415935e-06 0.00000000e+00)	(2.21003519e-08 -2.43999025e-08 0.00000000e+00)
1.40000000e+03	bottomWall	(-4.95515548e+01 -9.34667642e-01 0.00000000e+00)	(-5.39736200e+00 4.10504242e-03 0.00000000e+00)
1.50000000e+03	topWall	(-2.89006636e-09 -3.09571388e-06 0.00000000e+00)	(2.20709250e-08 -2.43690204e-08 0.00000000e+00)
1.50000000e+03	bottomWall	(-4.95516078e+01 -9.34668104e-01 0.00000000e+00)	(-5.39024659e+00 4.10504811e-03 0.00000000e+00)
1.60000000e+03	topWall	(-2.54486759e-09 -3.11841790e-06 0.00000000e+00)	(2.20357838e-08 -2.43281715e-08 0.00000000e+00)
1.60000000e+03	bottomWall	(-4.95516574e+01 -9.34668366e-01 0.00000000e+00)	(-5.38714557e+00 4.10507097e-03 0.00000000e+00)
1.70000000e+03	topWall	(-2.21391390e-09 -3.13365562e-06 0.00000000e+00)	(2.19960273e-08 -2.42850146e-08 0.00000000e+00)
1.70000000e+03	bottomWall	(-4.95516999e+01 -9.34669488e-01 0.00000000e+00)	(-5.38731140e+00 4.10504155e-03 0.00000000e+00)
1.80000000e+03	topWall	(-1.90177397e-09 -3.14260461e-06 0.00000000e+00)	(2.19598734e-08 -2.42444444e-08 0.00000000e+00)
1.80000000e+03	bottomWall	(-4.95517336e+01 -9.34669714e-01 0.00000000e+00)	(-5.39008900e+00 4.10504671e-03 0.00000000e+00)
1.90000000e+03	topWall	(-1.61183895e-09 -3.14627328e-06 0.00000000e+00)	(2.19265753e-08 -2.42078246e-08 0.00000000e+00)
1.90000000e+03	bottomWall	(-4.95517649e+01 -9.34669749e-01 0.00000000e+00)	(-5.39490396e+00 4.10506735e-03 0.00000000e+00)
2.00000000e+03	topWall	(-1.34811850e-09 -3.14558645e-06 0.00000000e+00)	(2.18969672e-08 -2.41752753e-08 0.00000000e+00)
2.00000000e+03	bottomWall	(-4.95517911e+01 -9.34670681e-01 0.00000000e+00)	(-5.40124365e+00 4.10503600e-03 0.00000000e+00)
2.10000000e+03	topWall	(-1.11400650e-09 -3.14545569e-06 0.00000000e+00)	(2.18709918e-08 -2.41466052e-08 0.00000000e+00)
2.10000000e+03	bottomWall	(-4.95518098e+01 -9.34670716e-01 0.00000000e+00)	(-5.40865896e+00 4.10504263e-03 0.00000000e+00)
2.20000000e+03	topWall	(-9.12091450e-10 -3.17226141e-06 0.00000000e+00)	(2.18488742e-08 -2.41218729e-08 0.00000000e+00)
2.20000000e+03	bottomWall	(-4.95518281e+01 -9.34670580e-01 0.00000000e+00)	(-5.41677730e+00 4.10506421e-03 0.00000000e+00)
2.30000000e+03	topWall	(-7.43265283e-10 -3.18977222e-06 0.00000000e+00)	(2.18304544e-08 -2.41015354e-08 0.00000000e+00)
2.30000000e+03	bottomWall	(-4.95518433e+01 -9.34671369e-01 0.00000000e+00)	(-5.42530640e+00 4.10503355e-03 0.00000000e+00)
2.40000000e+03	topWall	(-6.07831403e-10 -3.19926866e-06 0.00000000e+00)	(2.18149514e-08 -2.40843187e-08 0.00000000e+00)
2.40000000e+03	bottomWall	(-4.95518527e+01 -9.34671283e-01 0.00000000e+00)	(-5.43402117e+00 4.10503937e-03 0.00000000e+00)
2.50000000e+03	topWall	(-5.05814960e-10 -3.20200958e-06 0.00000000e+00)	(2.18027671e-08 -2.40709024e-08 0.00000000e+00)
2.50000000e+03	bottomWall	(-4.95518630e+01 -9.34671045e-01 0.00000000e+00)	(-5.44274551e+00 4.10506065e-03 0.00000000e+00)
2.60000000e+03	topWall	(-4.38255680e-10 -3.19922783e-06 0.00000000e+00)	(2.17920846e-08 -2.40589845e-08 0.00000000e+00)
2.60000000e+03	bottomWall	(-4.95518714e+01 -9.34671745e-01 0.00000000e+00)	(-5.45133222e+00 4.10503067e-03 0.00000000e+00)
2.70000000e+03	topWall	(-4.07456450e-10 -3.19207031e-06 0.00000000e+00)	(2.17834733e-08 -2.40494097e-08 0.00000000e+00)
2.70000000e+03	bottomWall	(-4.95518753e+01 -9.34671587e-01 0.00000000e+00)	(-5.45965434e+00 4.10503666e-03 0.00000000e+00)
2.80000000e+03	topWall	(-4.13171575e-10 -3.18166048e-06 0.00000000e+00)	(2.17766242e-08 -2.40418690e-08 0.00000000e+00)
2.80000000e+03	bottomWall	(-4.95518812e+01 -9.34671289e-01 0.00000000e+00)	(-5.46760242e+00 4.10505990e-03 0.00000000e+00)
2.90000000e+03	topWall	(-4.46937380e-10 -3.16895499e-06 0.00000000e+00)	(2.17711179e-08 -2.40357311e-08 0.00000000e+00)
2.90000000e+03	bottomWall	(-4.95518862e+01 -9.34671958e-01 0.00000000e+00)	(-5.47508392e+00 4.10502913e-03 0.00000000e+00)
3.00000000e+03	topWall	(-4.97247692e-10 -3.15486306e-06 0.00000000e+00)	(2.17665509e-08 -2.40307916e-08 0.00000000e+00)
3.00000000e+03	bottomWall	(-4.95518873e+01 -9.34671752e-01 0.00000000e+00)	(-5.48202050e+00 4.10503350e-03 0.00000000e+00)
3.10000000e+03	topWall	(-5.55625993e-10 -3.14007310e-06 0.00000000e+00)	(2.17629368e-08 -2.40267924e-08 0.00000000e+00)
3.10000000e+03	bottomWall	(-4.95518907e+01 -9.34671427e-01 0.00000000e+00)	(-5.48834750e+00 4.10506218e-03 0.00000000e+00)
3.20000000e+03	topWall	(-6.16354052e-10 -3.12529079e-06 0.00000000e+00)	(2.17603269e-08 -2.40236876e-08 0.00000000e+00)
3.20000000e+03	bottomWall	(-4.95518937e+01 -9.34672052e-01 0.00000000e+00)	(-5.49401483e+00 4.10503296e-03 0.00000000e+00)
3.30000000e+03	topWall	(-6.75386129e-10 -3.11111361e-06 0.00000000e+00)	(2.17580260e-08 -2.40212457e-08 0.00000000e+00)
3.30000000e+03	bottomWall	(-4.95518926e+01 -9.34671793e-01 0.00000000e+00)	(-5.49898802e+00 4.10505986e-03 0.00000000e+00)
3.40000000e+03	topWall	(-7.30333215e-10 -3.09793382e-06 0.00000000e+00)	(2.17563232e-08 -2.40193651e-08 0.00000000e+00)
3.40000000e+03	bottomWall	(-4.95518949e+01 -9.34671452e-01 0.00000000e+00)	(-5.50325071e+00 4.10508493e-03 0.00000000e+00)
3.50000000e+03	topWall	(-7.79618442e-10 -3.08608868e-06 0.00000000e+00)	(2.17550006e-08 -2.40178962e-08 0.00000000e+00)
3.50000000e+03	bottomWall	(-4.95518968e+01 -9.34672060e-01 0.00000000e+00)	(-5.50680437e+00 4.10505500e-03 0.00000000e+00)
3.60000000e+03	topWall	(-8.22190781e-10 -3.07578364e-06 0.00000000e+00)	(2.17539927e-08 -2.40167751e-08 0.00000000e+00)
3.60000000e+03	bottomWall	(-4.95518953e+01 -9.34671760e-01 0.00000000e+00)	(-5.50966797e+00 4.10597487e-03 0.00000000e+00)
